LAMMPS (27 Jun 2024)
OMP_NUM_THREADS environment is not set. Defaulting to 1 thread. (src/comm.cpp:98)
  using 1 OpenMP thread(s) per MPI task
Reading data file ...
  orthogonal box = (0 0 0) to (22.422218 22.19224 20.321894)
  5 by 2 by 2 MPI processor grid
  reading atoms ...
  448 atoms
  read_data CPU = 0.005 seconds
**************** Begin of POD Potentials ****************
species: Hf 
periodic boundary conditions: 1 1 1
number of environment clusters: 8
number of principal compoments: 2
inner cut-off radius: 1
outer cut-off radius: 5
cut-off function type: 1
gaussian_exponents: 
polynomial_degrees: 
bessel polynomial degree: 4
inverse polynomial degree: 10
one-body potential: 1
two-body radial basis functions: 8
three-body radial basis functions: 8
three-body angular degree: 6
four-body radial basis functions: 7
four-body angular degree: 5
five-body radial basis functions: 0
five-body angular degree: 0
six-body radial basis functions: 0
six-body angular degree: 0
seven-body radial basis functions: 0
seven-body angular degree: 0
number of local descriptors per element for one-body potential: 1
number of local descriptors per element for two-body potential: 8
number of local descriptors per element for three-body potential: 56
number of local descriptors per element for four-body potential: 112
number of local descriptors per element for five-body potential: 0
number of local descriptors per element for six-body potential: 0
number of local descriptors per element for seven-body potential: 0
number of local descriptors per element for all potentials: 177
number of global descriptors: 1409
**************** End of POD Potentials ****************

**************** Begin of Model Coefficients ****************
total number of coefficients for POD potential: 1409
total number of elements for PCA projection matrix: 352
total number of elements for PCA centroids: 16
**************** End of Model Coefficients ****************


CITE-CITE-CITE-CITE-CITE-CITE-CITE-CITE-CITE-CITE-CITE-CITE-CITE

Your simulation uses code contributions which should be cited:
- Type Label Framework: https://doi.org/10.1021/acs.jpcb.3c08419
The log file lists these citations in BibTeX format.

CITE-CITE-CITE-CITE-CITE-CITE-CITE-CITE-CITE-CITE-CITE-CITE-CITE

Neighbor list info ...
  update: every = 1 steps, delay = 0 steps, check = no
  max neighbors/atom: 2000, page size: 100000
  master list distance cutoff = 7
  ghost atom cutoff = 7
  binsize = 3.5, bins = 7 7 6
  1 neighbor lists, perpetual/occasional/extra = 1 0 0
  (1) pair pod, perpetual
      attributes: full, newton on
      pair build: full/bin/atomonly
      stencil: full/bin/3d
      bin: standard
Setting up Verlet run ...
  Unit style    : metal
  Current step  : 0
  Time step     : 0.001
Per MPI rank memory allocation (min/avg/max) = 2.586 | 2.586 | 2.586 Mbytes
   Step          Temp          TotEng         PotEng         KinEng         Press          Volume    
         0   300           -3263.9145     -3281.2483      17.333785      1830.9177      10112.159    
       100   90.05629      -3263.024      -3268.2274      5.203388       3947.0252      10112.159    
       200   161.31415     -3259.8078     -3269.1284      9.3206163      4585.9953      10112.159    
       300   209.82846     -3255.8738     -3267.9976      12.123738      5069.021       10112.159    
       400   282.61917     -3251.7984     -3268.128       16.329533      4890.0158      10112.159    
       500   322.84474     -3247.8556     -3266.5094      18.653738      5943.3505      10112.159    
       600   291.04319     -3245.1876     -3262.0038      16.816267      7317.4868      10112.159    
       700   297.64258     -3243.9814     -3261.179       17.197575      7776.8706      10112.159    
       800   312.2116      -3245.0667     -3263.106       18.039363      7047.8476      10112.159    
       900   301.69654     -3246.8529     -3264.2847      17.431811      6655.3711      10112.159    
      1000   310.96315     -3248.0414     -3266.0087      17.967229      5974.7582      10112.159    
      1100   272.19987     -3248.2965     -3264.024       15.727514      6426.7479      10112.159    
      1200   295.49346     -3246.5484     -3263.6218      17.073401      6837.596       10112.159    
      1300   295.02187     -3245.4675     -3262.5136      17.046153      7155.7195      10112.159    
      1400   315.24031     -3244.8539     -3263.0682      18.214359      6879.7361      10112.159    
      1500   299.99725     -3245.7871     -3263.1207      17.333627      6900.6593      10112.159    
      1600   318.95569     -3246.6768     -3265.1058      18.429032      6301.9011      10112.159    
      1700   287.58294     -3247.7183     -3264.3347      16.616336      6825.7101      10112.159    
      1800   267.3202      -3247.8564     -3263.302       15.44557       6570.9457      10112.159    
      1900   308.5106      -3246.3017     -3264.1272      17.825522      7015.6693      10112.159    
      2000   299.42452     -3245.6697     -3262.9702      17.300535      6837.5778      10112.159    
      2100   314.67076     -3245.4341     -3263.6155      18.181451      6993.616       10112.159    
      2200   308.54434     -3245.8972     -3263.7247      17.827471      6734.0528      10112.159    
      2300   269.41099     -3246.9981     -3262.5645      15.566375      7008.011       10112.159    
      2400   316.05357     -3247.022      -3265.2833      18.261349      6195.2587      10112.159    
      2500   297.37948     -3247.4082     -3264.5905      17.182374      6456.5969      10112.159    
      2600   297.51948     -3246.4387     -3263.6292      17.190463      6699.6821      10112.159    
      2700   293.83059     -3245.6308     -3262.6081      16.977321      7044.0005      10112.159    
      2800   308.85308     -3245.5495     -3263.3948      17.84531       6791.481       10112.159    
      2900   293.83424     -3246.8121     -3263.7896      16.977533      6668.7504      10112.159    
      3000   284.68624     -3248.4567     -3264.9057      16.448967      6140.219       10112.159    
      3100   276.83558     -3248.0271     -3264.0224      15.995362      6613.5836      10112.159    
      3200   308.70199     -3247.0006     -3264.8372      17.83658       6487.2072      10112.159    
      3300   288.05944     -3246.622      -3263.2658      16.643869      6722.209       10112.159    
      3400   305.33325     -3245.4996     -3263.1415      17.641937      6907.5421      10112.159    
      3500   316.2694      -3245.2643     -3263.5381      18.27382       7042.0929      10112.159    
      3600   294.97095     -3246.8249     -3263.8681      17.04321       6663.478       10112.159    
      3700   302.10823     -3248.042      -3265.4976      17.455597      6436.3122      10112.159    
      3800   263.50673     -3247.8431     -3263.0683      15.22523       6748.3419      10112.159    
      3900   316.10691     -3246.6012     -3264.8656      18.264431      6709.7633      10112.159    
      4000   301.39659     -3246.2168     -3263.6313      17.414479      6801.8148      10112.159    
      4100   293.30759     -3245.8709     -3262.818       16.947103      6952.6962      10112.159    
      4200   316.24542     -3245.7067     -3263.9791      18.272434      6932.7273      10112.159    
      4300   286.71754     -3246.6366     -3263.203       16.566335      6964.4626      10112.159    
      4400   313.83731     -3247.1872     -3265.3205      18.133295      6289.6828      10112.159    
      4500   277.62169     -3247.7343     -3263.7751      16.040783      6760.6294      10112.159    
      4600   294.0929      -3246.6263     -3263.6187      16.992477      6699.3764      10112.159    
      4700   329.62671     -3245.1638     -3264.2094      19.045596      6861.655       10112.159    
      4800   296.01355     -3245.5655     -3262.669       17.103451      7211.4446      10112.159    
      4900   296.16809     -3246.1473     -3263.2597      17.11238       7064.6781      10112.159    
      5000   304.5376      -3246.7558     -3264.3517      17.595965      6892.2248      10112.159    
      5100   272.76572     -3248.4364     -3264.1966      15.760208      6355.3479      10112.159    
      5200   291.7898      -3248.4229     -3265.2823      16.859406      6293.8415      10112.159    
      5300   298.93702     -3247.4871     -3264.7594      17.272367      6466.3518      10112.159    
      5400   276.61975     -3246.7489     -3262.7318      15.982891      7098.6861      10112.159    
      5500   315.30938     -3245.4908     -3263.7091      18.218351      7199.7123      10112.159    
      5600   303.00672     -3245.8655     -3263.373       17.507512      6962.8751      10112.159    
      5700   310.70613     -3246.4223     -3264.3747      17.952378      6758.1284      10112.159    
      5800   281.26185     -3247.045      -3263.2961      16.251108      6781.4809      10112.159    
      5900   302.03503     -3246.5379     -3263.9893      17.451368      6811.7631      10112.159    
      6000   312.72281     -3245.4104     -3263.4793      18.0689        6769.1392      10112.159    
      6100   300.64227     -3244.9226     -3262.2935      17.370895      7461.447       10112.159    
      6200   319.56318     -3245.274      -3263.7381      18.464132      6997.5248      10112.159    
      6300   297.39164     -3246.9055     -3264.0886      17.183076      6689.0187      10112.159    
      6400   297.97406     -3247.1231     -3264.3398      17.216728      6767.0068      10112.159    
      6500   294.25133     -3246.844      -3263.8457      17.001632      6631.7455      10112.159    
      6600   304.54695     -3245.8047     -3263.4012      17.596505      6909.2953      10112.159    
      6700   313.61322     -3244.2585     -3262.3789      18.120348      7310.0223      10112.159    
      6800   323.3619      -3244.3507     -3263.0343      18.683619      7351.9056      10112.159    
      6900   302.83592     -3245.8648     -3263.3624      17.497643      6934.0928      10112.159    
      7000   295.24474     -3246.2731     -3263.3322      17.05903       6880.185       10112.159    
      7100   300.82184     -3246.49       -3263.8712      17.381271      6739.662       10112.159    
      7200   293.54451     -3247.2666     -3264.2274      16.960792      6700.8943      10112.159    
      7300   293.7463      -3247.4811     -3264.4536      16.972451      6502.012       10112.159    
      7400   300.09642     -3246.1286     -3263.468       17.339357      6923.9462      10112.159    
      7500   302.89531     -3244.9786     -3262.4797      17.501074      7444.3925      10112.159    
      7600   314.70311     -3245.2772     -3263.4605      18.18332       6775.9519      10112.159    
      7700   322.08908     -3245.5562     -3264.1663      18.610077      6788.814       10112.159    
      7800   283.79687     -3246.6685     -3263.0661      16.39758       6900.2603      10112.159    
      7900   294.54871     -3246.8339     -3263.8527      17.018814      7021.1998      10112.159    
      8000   295.98739     -3246.6902     -3263.7922      17.10194       6989.7064      10112.159    
      8100   303.84895     -3245.7104     -3263.2666      17.556175      6995.7508      10112.159    
      8200   327.67449     -3244.4782     -3263.411       18.932798      7216.9768      10112.159    
      8300   306.31347     -3245.2746     -3262.9731      17.698573      7214.2718      10112.159    
      8400   291.17177     -3246.7202     -3263.5439      16.823697      6967.0665      10112.159    
      8500   292.43359     -3247.0141     -3263.9107      16.896604      6941.6752      10112.159    
      8600   310.79867     -3246.5368     -3264.4945      17.957725      6803.0679      10112.159    
      8700   300.73817     -3246.2311     -3263.6075      17.376436      7056.226       10112.159    
      8800   305.35571     -3245.5337     -3263.1769      17.643234      7086.9266      10112.159    
      8900   304.34564     -3244.6436     -3262.2285      17.584873      7519.2099      10112.159    
      9000   323.75307     -3244.6314     -3263.3376      18.706221      7290.5647      10112.159    
      9100   301.16398     -3246.3778     -3263.7788      17.40104       6833.6351      10112.159    
      9200   309.31066     -3246.74       -3264.6117      17.871749      6809.7101      10112.159    
      9300   284.8429      -3247.1111     -3263.5691      16.458019      6817.9924      10112.159    
      9400   306.81714     -3246.463      -3264.1907      17.727675      7036.5991      10112.159    
      9500   296.5863      -3245.1477     -3262.2843      17.136544      7345.3223      10112.159    
      9600   338.27578     -3244.206      -3263.7513      19.545333      7061.84        10112.159    
      9700   309.84309     -3245.1871     -3263.0896      17.902512      7116.3446      10112.159    
      9800   291.86832     -3246.2097     -3263.0736      16.863943      7348.964       10112.159    
      9900   310.69139     -3246.4294     -3264.381       17.951526      6843.548       10112.159    
     10000   280.44832     -3247.0665     -3263.2706      16.204103      6794.8849      10112.159    
     10100   314.36543     -3246.7102     -3264.874       18.16381       6565.6452      10112.159    
     10200   308.12132     -3245.6426     -3263.4456      17.80303       6863.4471      10112.159    
     10300   310.62092     -3244.7306     -3262.6781      17.947454      7366.5932      10112.159    
     10400   290.77106     -3245.875      -3262.6756      16.800544      7186.2609      10112.159    
     10500   296.70566     -3246.5121     -3263.6555      17.143441      6873.298       10112.159    
     10600   305.05612     -3247.002      -3264.6279      17.625924      6467.5113      10112.159    
     10700   300.6468      -3247.043      -3264.4142      17.371157      6802.3114      10112.159    
     10800   283.69207     -3246.5471     -3262.9386      16.391525      6893.2761      10112.159    
     10900   302.4143      -3246.0104     -3263.4837      17.473282      6953.8312      10112.159    
     11000   311.36228     -3245.9653     -3263.9556      17.99029       6629.7754      10112.159    
     11100   292.51089     -3246.2711     -3263.1722      16.90107       6985.5738      10112.159    
     11200   314.51029     -3246.2545     -3264.4267      18.17218       6688.6816      10112.159    
     11300   286.71206     -3246.9228     -3263.4889      16.566018      6871.3733      10112.159    
     11400   285.7213      -3247.061      -3263.5697      16.508772      6958.7664      10112.159    
     11500   313.90868     -3246.4009     -3264.5383      18.137419      6702.0902      10112.159    
     11600   298.35858     -3245.7338     -3262.9727      17.238946      7045.4963      10112.159    
     11700   313.50999     -3244.5551     -3262.6695      18.114383      7040.5911      10112.159    
     11800   311.20782     -3244.8234     -3262.8048      17.981365      7085.6797      10112.159    
     11900   307.18772     -3246.0488     -3263.7979      17.749087      6727.4726      10112.159    
     12000   301.37985     -3246.4598     -3263.8733      17.413512      6775.9844      10112.159    
     12100   281.26968     -3246.9597     -3263.2113      16.251561      6602.0456      10112.159    
     12200   319.67695     -3246.5913     -3265.062       18.470706      6412.8134      10112.159    
     12300   294.40266     -3246.5076     -3263.518       17.010375      6666.5754      10112.159    
     12400   292.77867     -3245.5985     -3262.515       16.916542      7469.6042      10112.159    
     12500   311.46752     -3245.0269     -3263.0233      17.996371      6941.9153      10112.159    
     12600   319.49229     -3245.8082     -3264.2682      18.460036      6675.8797      10112.159    
     12700   296.22564     -3247.4351     -3264.5508      17.115706      6549.1302      10112.159    
     12800   284.52077     -3247.5907     -3264.0301      16.439406      6491.5995      10112.159    
     12900   281.05806     -3246.7531     -3262.9924      16.239334      6886.8943      10112.159    
     13000   324.11526     -3245.9256     -3264.6527      18.727148      6750.8025      10112.159    
     13100   285.35145     -3246.2469     -3262.7343      16.487403      6629.7212      10112.159    
     13200   324.06913     -3245.6137     -3264.3381      18.724482      6751.3127      10112.159    
     13300   289.67405     -3246.3908     -3263.128       16.737159      6853.05        10112.159    
     13400   299.61675     -3246.9345     -3264.2462      17.311641      6740.7483      10112.159    
     13500   272.30636     -3248.9934     -3264.7271      15.733666      6113.2895      10112.159    
     13600   292.28302     -3248.62       -3265.5079      16.887904      5945.5831      10112.159    
     13700   301.59993     -3247.3513     -3264.7776      17.426228      6463.9617      10112.159    
     13800   278.65448     -3246.5422     -3262.6427      16.100457      6701.176       10112.159    
     13900   319.28343     -3245.5813     -3264.0293      18.447968      6955.8315      10112.159    
     14000   313.8275      -3245.8039     -3263.9366      18.132728      6794.6296      10112.159    
     14100   283.71307     -3246.9133     -3263.3061      16.392739      6725.1185      10112.159    
     14200   291.69265     -3247.3288     -3264.1826      16.853793      6646.9366      10112.159    
     14300   304.63098     -3246.5357     -3264.137       17.60136       6725.7885      10112.159    
     14400   308.92695     -3244.4709     -3262.3205      17.849578      7276.5453      10112.159    
     14500   309.33424     -3244.7552     -3262.6283      17.873111      6771.2676      10112.159    
     14600   311.26057     -3246.2676     -3264.252       17.984413      6887.6857      10112.159    
     14700   293.4709      -3247.0731     -3264.0296      16.956539      6597.595       10112.159    
     14800   288.97283     -3246.9203     -3263.617       16.696643      6731.637       10112.159    
     14900   306.48969     -3245.9431     -3263.6518      17.708755      6889.4888      10112.159    
     15000   313.03776     -3244.5382     -3262.6253      18.087098      6990.0305      10112.159    
     15100   331.29482     -3243.9454     -3263.0873      19.141978      7202.7664      10112.159    
     15200   305.37856     -3245.6175     -3263.2621      17.644555      6950.0501      10112.159    
     15300   286.33547     -3246.4481     -3262.9923      16.544259      6897.4179      10112.159    
     15400   288.60176     -3246.8701     -3263.5453      16.675203      6617.0616      10112.159    
     15500   299.66898     -3246.7887     -3264.1034      17.314659      6434.4845      10112.159    
     15600   334.94201     -3245.7831     -3265.1358      19.35271       6639.2461      10112.159    
     15700   281.39206     -3245.7296     -3261.9882      16.258632      7000.0025      10112.159    
     15800   312.54174     -3244.6647     -3262.7231      18.058438      7375.9533      10112.159    
     15900   299.54858     -3245.7057     -3263.0134      17.307703      6887.8958      10112.159    
     16000   311.77804     -3246.7778     -3264.7921      18.014312      6302.2025      10112.159    
     16100   304.40096     -3247.0093     -3264.5974      17.58807       6475.2013      10112.159    
     16200   280.60077     -3247.1069     -3263.3198      16.212912      6846.1733      10112.159    
     16300   298.79464     -3245.7421     -3263.0062      17.264141      7094.9775      10112.159    
     16400   314.11059     -3244.8561     -3263.0052      18.149085      6967.874       10112.159    
     16500   316.44607     -3245.3532     -3263.6373      18.284028      6860.7394      10112.159    
     16600   288.98599     -3246.8526     -3263.55        16.697404      6621.4714      10112.159    
     16700   290.25733     -3246.9382     -3263.709       16.770861      6769.9148      10112.159    
     16800   299.89374     -3246.6788     -3264.0065      17.327646      6753.4218      10112.159    
     16900   293.62082     -3246.7466     -3263.7118      16.965201      6660.1045      10112.159    
     17000   303.46311     -3246.0159     -3263.5497      17.533882      6735.0266      10112.159    
     17100   319.27677     -3244.6922     -3263.1398      18.447583      7122.7028      10112.159    
     17200   293.72484     -3245.2904     -3262.2616      16.971211      7083.2681      10112.159    
     17300   306.54632     -3246.448      -3264.1601      17.712027      6691.2759      10112.159    
     17400   299.29036     -3247.0801     -3264.3729      17.292783      6538.5766      10112.159    
     17500   288.91799     -3247.0249     -3263.7183      16.693475      6706.1339      10112.159    
     17600   301.83534     -3246.143      -3263.5829      17.43983       6980.1673      10112.159    
     17700   321.74074     -3245.4272     -3264.0172      18.58995       6633.1844      10112.159    
     17800   275.52355     -3246.5845     -3262.5041      15.919553      7160.9983      10112.159    
     17900   281.79283     -3248.2964     -3264.5782      16.281788      6513.6907      10112.159    
     18000   288.89734     -3249.4238     -3266.116       16.692281      5733.1286      10112.159    
     18100   293.55877     -3248.5328     -3265.4944      16.961616      6096.5619      10112.159    
     18200   284.94581     -3247.2997     -3263.7637      16.463965      6578.8637      10112.159    
     18300   295.76554     -3246.3681     -3263.4572      17.089122      7182.8346      10112.159    
     18400   291.47821     -3245.7743     -3262.6157      16.841403      6948.8613      10112.159    
     18500   316.91158     -3245.4075     -3263.7184      18.310924      7023.4232      10112.159    
     18600   303.71007     -3246.523      -3264.0712      17.548151      6639.1097      10112.159    
     18700   292.41792     -3247.5174     -3264.4131      16.895698      6738.6466      10112.159    
     18800   271.92792     -3249.0773     -3264.7891      15.711801      6344.6674      10112.159    
     18900   270.38337     -3249.712      -3265.3345      15.622558      5997.8655      10112.159    
     19000   292.65873     -3247.862      -3264.7717      16.909612      6400.6816      10112.159    
     19100   303.00945     -3246.7993     -3264.307       17.507669      6590.0637      10112.159    
     19200   298.61548     -3246.0294     -3263.2832      17.253789      6817.5379      10112.159    
     19300   312.41989     -3245.2747     -3263.3261      18.051398      6861.1284      10112.159    
     19400   296.07143     -3245.5471     -3262.6539      17.106796      7140.3724      10112.159    
     19500   304.605       -3246.8735     -3264.4733      17.599859      6549.3559      10112.159    
     19600   304.7462      -3247.943      -3265.551       17.608018      6064.0668      10112.159    
     19700   277.66786     -3247.7382     -3263.7817      16.04345       6531.4757      10112.159    
     19800   288.0829      -3246.9576     -3263.6028      16.645224      7063.3174      10112.159    
     19900   301.2574      -3246.2524     -3263.6588      17.406437      6695.5525      10112.159    
     20000   326.18        -3245.5482     -3264.3946      18.846447      6667.6065      10112.159    
     20100   285.05981     -3246.166      -3262.6366      16.470552      6971.5377      10112.159    
     20200   299.89352     -3246.2527     -3263.5803      17.327633      6750.4342      10112.159    
     20300   298.35283     -3246.6312     -3263.8698      17.238613      6827.1945      10112.159    
     20400   302.79246     -3246.5859     -3264.081       17.495132      6660.1527      10112.159    
     20500   297.59441     -3246.2301     -3263.4249      17.194792      7006.3645      10112.159    
     20600   301.51969     -3245.3526     -3262.7742      17.421592      6930.8136      10112.159    
     20700   325.0792      -3244.1955     -3262.9783      18.782844      7441.7278      10112.159    
     20800   311.51822     -3245.2394     -3263.2387      17.9993        6869.2766      10112.159    
     20900   295.3414      -3246.4971     -3263.5617      17.064615      6942.4265      10112.159    
     21000   297.7565      -3246.8662     -3264.0704      17.204157      6817.3139      10112.159    
     21100   305.98317     -3246.7933     -3264.4728      17.679488      6461.7377      10112.159    
     21200   298.40121     -3246.1015     -3263.3429      17.241409      6950.6584      10112.159    
     21300   321.8592      -3244.5087     -3263.1055      18.596794      7423.3389      10112.159    
     21400   303.51746     -3244.9863     -3262.5233      17.537022      6913.1101      10112.159    
     21500   312.5792      -3245.9968     -3264.0574      18.060603      6933.157       10112.159    
     21600   305.51656     -3246.5495     -3264.2021      17.652528      6700.7679      10112.159    
     21700   290.84885     -3246.8792     -3263.6842      16.805038      6707.6456      10112.159    
     21800   303.62132     -3246.3902     -3263.9332      17.543023      6904.6066      10112.159    
     21900   296.16248     -3245.357      -3262.4691      17.112057      7260.552       10112.159    
     22000   335.52379     -3243.9517     -3263.338       19.386325      7322.0256      10112.159    
     22100   308.22415     -3245.0488     -3262.8577      17.808971      6917.4024      10112.159    
     22200   307.95109     -3246.2497     -3264.0429      17.793194      6822.8693      10112.159    
     22300   290.69113     -3246.4822     -3263.2781      16.795926      6758.3758      10112.159    
     22400   312.32665     -3246.3366     -3264.3826      18.04601       6705.1679      10112.159    
     22500   295.16578     -3247.024      -3264.0785      17.054468      6454.914       10112.159    
     22600   292.46855     -3246.9978     -3263.8965      16.898624      6519.9595      10112.159    
     22700   304.75245     -3246.0323     -3263.6407      17.608378      6807.6282      10112.159    
     22800   293.94553     -3245.6261     -3262.61        16.983962      6916.6476      10112.159    
     22900   337.72279     -3244.9596     -3264.473       19.513381      6673.4297      10112.159    
     23000   289.12749     -3246.0446     -3262.7502      16.70558       7072.2536      10112.159    
     23100   292.83223     -3247.1601     -3264.0797      16.919637      6621.6741      10112.159    
     23200   296.92459     -3247.2548     -3264.4109      17.15609       6319.1475      10112.159    
     23300   300.25186     -3246.9183     -3264.2666      17.348338      6717.8897      10112.159    
     23400   282.7559      -3246.7622     -3263.0996      16.337434      6832.0061      10112.159    
     23500   305.17781     -3246.201      -3263.834       17.632956      6748.219       10112.159    
     23600   307.61744     -3246.2879     -3264.0618      17.773916      6711.1231      10112.159    
     23700   299.78505     -3246.7261     -3264.0475      17.321366      6672.8893      10112.159    
     23800   278.20469     -3247.6675     -3263.742       16.074468      6714.487       10112.159    
     23900   288.06089     -3248.0424     -3264.6864      16.643952      6169.5229      10112.159    
     24000   305.30697     -3247.0739     -3264.7143      17.640418      6498.3741      10112.159    
     24100   298.38129     -3245.9022     -3263.1425      17.240257      6681.7936      10112.159    
     24200   308.81065     -3245.2972     -3263.14        17.842859      7146.8242      10112.159    
     24300   297.4244      -3245.8137     -3262.9987      17.184969      6886.721       10112.159    
     24400   305.95475     -3246.1244     -3263.8023      17.677847      6742.0566      10112.159    
     24500   299.68933     -3246.4593     -3263.7752      17.315835      6640.0024      10112.159    
     24600   313.77289     -3246.6707     -3264.8003      18.129573      6632.6844      10112.159    
     24700   298.03857     -3247.1203     -3264.3407      17.220456      6411.7362      10112.159    
     24800   300.09178     -3246.6061     -3263.9452      17.339088      6839.0191      10112.159    
     24900   299.98661     -3245.7844     -3263.1174      17.333012      6799.7764      10112.159    
     25000   312.09219     -3245.1522     -3263.1847      18.032464      7092.0869      10112.159    
     25100   303.45037     -3245.4065     -3262.9397      17.533145      7009.7698      10112.159    
     25200   299.18431     -3246.9555     -3264.2422      17.286656      6682.952       10112.159    
     25300   295.84834     -3247.5784     -3264.6723      17.093905      6652.4664      10112.159    
     25400   276.18266     -3247.4803     -3263.4379      15.957637      6727.0481      10112.159    
     25500   313.02341     -3246.2558     -3264.342       18.086269      6760.0482      10112.159    
     25600   307.9803      -3246.0894     -3263.8843      17.794881      6625.5807      10112.159    
     25700   303.56347     -3246.1852     -3263.7249      17.53968       6811.7752      10112.159    
     25800   299.21157     -3246.4846     -3263.7728      17.28823       6683.7289      10112.159    
     25900   280.89515     -3247.6822     -3263.9121      16.229921      6767.1332      10112.159    
     26000   284.48469     -3248.5283     -3264.9656      16.437322      6451.0978      10112.159    
     26100   283.1828      -3248.1483     -3264.5104      16.3621        6428.1543      10112.159    
     26200   305.71224     -3246.1383     -3263.8022      17.663835      6683.3061      10112.159    
     26300   305.196       -3245.7764     -3263.4104      17.634007      7128.8068      10112.159    
     26400   302.77794     -3246.0225     -3263.5168      17.494293      6905.2065      10112.159    
     26500   288.72714     -3247.1934     -3263.8758      16.682448      6627.5905      10112.159    
     26600   307.38374     -3247.4649     -3265.2253      17.760412      6342.0216      10112.159    
     26700   278.04636     -3247.0719     -3263.1372      16.06532       6761.9112      10112.159    
     26800   312.09279     -3245.2883     -3263.3208      18.032498      7052.1284      10112.159    
     26900   306.95519     -3245.6013     -3263.3369      17.735651      7120.2637      10112.159    
     27000   297.61212     -3246.5403     -3263.7361      17.195815      6717.8686      10112.159    
     27100   302.98428     -3247.1649     -3264.6711      17.506215      6315.4088      10112.159    
     27200   279.5215      -3247.8431     -3263.9937      16.150553      6480.6017      10112.159    
     27300   294.31849     -3247.7403     -3264.7459      17.005512      6500.3457      10112.159    
     27400   287.54205     -3246.6741     -3263.2881      16.613974      6737.1493      10112.159    
     27500   297.67777     -3245.4798     -3262.6794      17.199609      7522.3043      10112.159    
     27600   311.61147     -3245.3262     -3263.3308      18.004688      6886.9096      10112.159    
     27700   312.53848     -3246.2471     -3264.3053      18.05825       6611.0929      10112.159    
     27800   281.63526     -3247.7819     -3264.0546      16.272684      6610.9825      10112.159    
     27900   283.07319     -3247.7336     -3264.0894      16.355767      6772.5763      10112.159    
     28000   300.39032     -3247.1277     -3264.484       17.356338      6437.9377      10112.159    
     28100   289.60886     -3246.4047     -3263.1381      16.733393      6768.689       10112.159    
     28200   324.49967     -3245.3526     -3264.1019      18.749359      6695.6083      10112.159    
     28300   300.62062     -3245.6974     -3263.067       17.369645      7090.4832      10112.159    
     28400   290.15588     -3246.4102     -3263.1752      16.764999      6835.7645      10112.159    
     28500   309.81576     -3246.719      -3264.6199      17.900933      6625.9104      10112.159    
     28600   281.65867     -3247.506      -3263.78        16.274037      6812.5913      10112.159    
     28700   285.94807     -3248.307      -3264.8289      16.521875      6389.8781      10112.159    
     28800   290.78571     -3248.1788     -3264.9802      16.801391      6311.6921      10112.159    
     28900   295.63936     -3246.5905     -3263.6723      17.081831      6631.7562      10112.159    
     29000   298.49483     -3245.9145     -3263.1613      17.246818      6938.1785      10112.159    
     29100   301.92957     -3245.9087     -3263.354       17.445274      6930.7508      10112.159    
     29200   300.59351     -3246.6217     -3263.9898      17.368078      6667.1023      10112.159    
     29300   292.07534     -3247.8676     -3264.7435      16.875904      6372.434       10112.159    
     29400   300.77712     -3247.5217     -3264.9004      17.378687      6417.0835      10112.159    
     29500   299.80017     -3246.0947     -3263.417       17.322239      6849.7671      10112.159    
     29600   300.14418     -3245.4131     -3262.7552      17.342116      7009.7987      10112.159    
     29700   290.7132      -3246.0319     -3262.8291      16.797201      6887.1442      10112.159    
     29800   317.18202     -3246.5096     -3264.8362      18.32655       6437.7383      10112.159    
     29900   299.52594     -3247.1838     -3264.4902      17.306395      6497.3736      10112.159    
     30000   290.76768     -3247.1088     -3263.9091      16.800349      6637.4361      10112.159    
     30100   291.81152     -3245.7637     -3262.6244      16.860661      7139.5706      10112.159    
     30200   317.50576     -3244.5746     -3262.9198      18.345256      7208.1036      10112.159    
     30300   322.90264     -3245.2707     -3263.9278      18.657084      6826.8656      10112.159    
     30400   298.37402     -3246.4785     -3263.7183      17.239837      6933.689       10112.159    
     30500   299.01403     -3246.5219     -3263.7987      17.276817      6915.1708      10112.159    
     30600   293.31506     -3246.5846     -3263.5321      16.947534      6948.2575      10112.159    
     30700   296.50456     -3246.5573     -3263.6891      17.131822      6595.1519      10112.159    
     30800   321.45711     -3245.8038     -3264.3773      18.573562      6616.1073      10112.159    
     30900   294.1146      -3245.86       -3262.8537      16.993731      7077.1622      10112.159    
     31000   296.76364     -3245.8105     -3262.9573      17.146791      7208.3974      10112.159    
     31100   297.73651     -3246.6497     -3263.8527      17.203003      6971.0095      10112.159    
     31200   296.01078     -3247.5666     -3264.6699      17.103291      6222.5         10112.159    
     31300   300.64195     -3247.4463     -3264.8172      17.370877      6350.8088      10112.159    
     31400   303.28961     -3245.8195     -3263.3434      17.523857      6949.4628      10112.159    
     31500   312.76243     -3245.0904     -3263.1616      18.07119       7113.7469      10112.159    
     31600   290.9751      -3245.873      -3262.6853      16.812333      7200.6498      10112.159    
     31700   301.83411     -3246.5241     -3263.9639      17.439759      6801.6739      10112.159    
     31800   288.76826     -3247.7459     -3264.4307      16.684824      6599.1018      10112.159    
     31900   301.95196     -3247.8964     -3265.3429      17.446568      6289.3267      10112.159    
     32000   303.20803     -3245.7851     -3263.3043      17.519143      6888.4792      10112.159    
     32100   304.38965     -3244.9333     -3262.5207      17.587417      7272.488       10112.159    
     32200   305.21341     -3245.3232     -3262.9582      17.635013      6996.1598      10112.159    
     32300   299.37388     -3246.6016     -3263.8992      17.297609      6680.4288      10112.159    
     32400   302.99666     -3247.1351     -3264.6421      17.50693       6495.7487      10112.159    
     32500   298.98499     -3247.0271     -3264.3022      17.275139      6681.9638      10112.159    
     32600   283.30585     -3246.6403     -3263.0095      16.369209      6813.2946      10112.159    
     32700   311.27145     -3246.2617     -3264.2468      17.985042      6816.8042      10112.159    
     32800   297.53734     -3246.4026     -3263.5941      17.191495      6665.5389      10112.159    
     32900   317.99839     -3246.1519     -3264.5256      18.37372       6809.1307      10112.159    
     33000   286.5543      -3246.7522     -3263.3091      16.556902      6916.6124      10112.159    
     33100   277.25553     -3247.6018     -3263.6214      16.019626      6729.8518      10112.159    
     33200   286.7285      -3248.3897     -3264.9566      16.566967      6128.0766      10112.159    
     33300   298.45245     -3247.6049     -3264.8493      17.244369      6532.4613      10112.159    
     33400   291.52331     -3246.647      -3263.491       16.844008      6843.502       10112.159    
     33500   302.51968     -3245.7731     -3263.2524      17.479371      7006.5486      10112.159    
     33600   307.3546      -3245.7732     -3263.532       17.758729      7124.8146      10112.159    
     33700   286.77349     -3246.2485     -3262.8181      16.569567      6905.279       10112.159    
     33800   310.07375     -3246.3268     -3264.2426      17.915839      6673.57        10112.159    
     33900   292.40581     -3246.7162     -3263.6112      16.894999      6766.8423      10112.159    
     34000   311.63869     -3246.2841     -3264.2904      18.006261      6727.5995      10112.159    
     34100   289.4477      -3246.6346     -3263.3586      16.724081      6885.3475      10112.159    
     34200   301.53878     -3246.4624     -3263.8851      17.422695      6850.9819      10112.159    
     34300   321.95481     -3244.6835     -3263.2858      18.602319      6934.172       10112.159    
     34400   333.61274     -3244.1522     -3263.4281      19.275906      7084.0783      10112.159    
     34500   299.54545     -3245.4629     -3262.7704      17.307522      7084.249       10112.159    
     34600   288.06566     -3246.4561     -3263.1003      16.644228      7022.1466      10112.159    
     34700   315.35435     -3246.5808     -3264.8018      18.220949      6356.3963      10112.159    
     34800   296.27065     -3247.0905     -3264.2088      17.118306      6351.7593      10112.159    
     34900   301.74354     -3246.6955     -3264.13        17.434526      6540.0395      10112.159    
     35000   308.6138      -3245.0181     -3262.8496      17.831485      7398.3779      10112.159    
     35100   307.97863     -3244.8713     -3262.666       17.794785      7088.2616      10112.159    
     35200   312.23586     -3245.718      -3263.7588      18.040764      6622.9105      10112.159    
     35300   300.07086     -3246.8208     -3264.1587      17.33788       6874.9922      10112.159    
     35400   297.85343     -3246.9411     -3264.1508      17.209758      6580.6511      10112.159    
     35500   299.22282     -3246.3464     -3263.6353      17.288881      6813.3768      10112.159    
     35600   312.39892     -3245.6295     -3263.6797      18.050186      6819.137       10112.159    
     35700   295.10386     -3246.2994     -3263.3503      17.05089       6927.8561      10112.159    
     35800   279.24755     -3247.7977     -3263.9324      16.134724      6678.7283      10112.159    
     35900   291.47902     -3248.1026     -3264.9441      16.841449      6378.9326      10112.159    
     36000   291.15052     -3247.0767     -3263.8992      16.822469      6761.8288      10112.159    
     36100   300.11601     -3245.0069     -3262.3474      17.340489      6946.5114      10112.159    
     36200   317.0806      -3245.071      -3263.3917      18.32069       7112.1684      10112.159    
     36300   292.83355     -3246.4589     -3263.3786      16.919713      6613.5557      10112.159    
     36400   305.86429     -3246.8071     -3264.4797      17.67262       6672.4328      10112.159    
     36500   291.71719     -3247.2774     -3264.1326      16.85521       6358.2235      10112.159    
     36600   293.80948     -3247.4549     -3264.431       16.976102      6599.8802      10112.159    
     36700   281.64889     -3246.7265     -3263           16.273472      6907.2117      10112.159    
     36800   302.40573     -3245.4866     -3262.9594      17.472787      6944.5276      10112.159    
     36900   316.94744     -3245.2174     -3263.5304      18.312997      7027.2962      10112.159    
     37000   291.99792     -3246.4927     -3263.3641      16.871431      6874.2652      10112.159    
     37100   288.53051     -3247.3025     -3263.9735      16.671086      6451.8488      10112.159    
     37200   291.26736     -3247.3133     -3264.1425      16.82922       6971.0596      10112.159    
     37300   312.55737     -3246.7968     -3264.8562      18.059341      6259.4715      10112.159    
     37400   300.06917     -3246.3859     -3263.7237      17.337782      6881.6982      10112.159    
     37500   303.65526     -3246.2044     -3263.7494      17.544984      6718.7072      10112.159    
     37600   293.26341     -3246.3008     -3263.2453      16.94455       7056.4786      10112.159    
     37700   296.99209     -3246.3364     -3263.4964      17.159991      6587.2917      10112.159    
     37800   317.31275     -3246.157      -3264.4911      18.334104      6543.8697      10112.159    
     37900   297.0934      -3246.7657     -3263.9315      17.165844      6673.8053      10112.159    
     38000   283.62247     -3248.0142     -3264.4017      16.387503      6669.6629      10112.159    
     38100   287.09436     -3247.8626     -3264.4508      16.588107      6512.1859      10112.159    
     38200   295.16901     -3246.3662     -3263.4208      17.054654      6838.0783      10112.159    
     38300   317.00887     -3245.6353     -3263.9518      18.316546      6975.1096      10112.159    
     38400   302.6089      -3246.1516     -3263.6361      17.484526      6528.051       10112.159    
     38500   294.93898     -3246.5809     -3263.6222      17.041363      6874.7327      10112.159    
     38600   289.94454     -3247.0424     -3263.7952      16.752788      6743.6208      10112.159    
     38700   285.26969     -3248.101      -3264.5837      16.482679      6496.811       10112.159    
     38800   275.03546     -3248.271      -3264.1623      15.891352      6316.6776      10112.159    
     38900   302.24012     -3246.6516     -3264.1149      17.463218      6899.1521      10112.159    
     39000   309.64674     -3245.8889     -3263.78        17.891167      6944.8869      10112.159    
     39100   297.22976     -3246.034      -3263.2077      17.173723      6910.0064      10112.159    
     39200   291.96066     -3246.4466     -3263.3159      16.869278      7098.8399      10112.159    
     39300   286.84196     -3247.7239     -3264.2974      16.573523      6536.1459      10112.159    
     39400   295.16051     -3248.2021     -3265.2562      17.054163      6108.3765      10112.159    
     39500   306.07927     -3247.0386     -3264.7237      17.685042      6345.6503      10112.159    
     39600   290.9916      -3246.334      -3263.1473      16.813287      6769.3459      10112.159    
     39700   306.71429     -3246.0522     -3263.774       17.721732      6642.6308      10112.159    
     39800   301.91494     -3246.1963     -3263.6407      17.444429      6811.8208      10112.159    
     39900   296.6033      -3246.6823     -3263.8198      17.137526      7172.612       10112.159    
     40000   292.05853     -3247.9801     -3264.855       16.874933      6364.8726      10112.159    
     40100   285.21179     -3248.2589     -3264.7382      16.479333      6328.4301      10112.159    
     40200   309.66798     -3246.5956     -3264.488       17.892394      6971.5454      10112.159    
     40300   280.93722     -3246.4712     -3262.7036      16.232352      7077.5596      10112.159    
     40400   299.33178     -3245.8504     -3263.1456      17.295176      6945.744       10112.159    
     40500   311.09039     -3245.7182     -3263.6928      17.97458       6881.9866      10112.159    
     40600   294.95045     -3246.6181     -3263.6602      17.042026      6910.3321      10112.159    
     40700   288.34738     -3247.6595     -3264.32        16.660506      6392.5881      10112.159    
     40800   272.37862     -3248.7438     -3264.4816      15.737842      6367.8975      10112.159    
     40900   289.71691     -3247.9252     -3264.6648      16.739636      6485.7609      10112.159    
     41000   300.71665     -3246.9234     -3264.2985      17.375193      6483.7138      10112.159    
     41100   305.66141     -3246.3484     -3264.0093      17.660897      7046.7405      10112.159    
     41200   303.86186     -3246.115      -3263.672       17.556921      6908.2737      10112.159    
     41300   294.23874     -3246.1851     -3263.1861      17.000904      6817.0098      10112.159    
     41400   294.45988     -3246.6249     -3263.6386      17.013681      6836.3317      10112.159    
     41500   308.84289     -3247.3387     -3265.1834      17.844721      6336.6759      10112.159    
     41600   278.18499     -3247.9664     -3264.0398      16.07333       6340.8679      10112.159    
     41700   305.22799     -3246.6671     -3264.303       17.635855      6676.6684      10112.159    
     41800   291.76548     -3245.9048     -3262.7628      16.858001      6990.4702      10112.159    
     41900   308.15579     -3245.8362     -3263.6412      17.805021      7114.5251      10112.159    
     42000   291.93943     -3246.2113     -3263.0794      16.868051      7026.7971      10112.159    
     42100   307.49046     -3246.1815     -3263.9481      17.766579      6783.4282      10112.159    
     42200   284.30628     -3246.9585     -3263.3855      16.427014      6773.2163      10112.159    
     42300   281.24671     -3248.5346     -3264.7848      16.250234      6382.877       10112.159    
     42400   288.0643      -3248.6884     -3265.3326      16.644149      6149.6284      10112.159    
     42500   287.98679     -3247.4384     -3264.078       16.639671      6759.8807      10112.159    
     42600   304.09515     -3246.6395     -3264.2099      17.5704        6620.5731      10112.159    
     42700   302.0277      -3246.1357     -3263.5866      17.450945      6798.1315      10112.159    
     42800   300.07749     -3245.634      -3262.9722      17.338263      7177.9262      10112.159    
     42900   291.15794     -3245.9216     -3262.7445      16.822898      7056.8068      10112.159    
     43000   305.06078     -3247.1217     -3264.7478      17.626194      6425.9678      10112.159    
     43100   294.34756     -3248.0635     -3265.0707      17.007191      6168.9084      10112.159    
     43200   285.42856     -3247.7294     -3264.2212      16.491858      6483.9489      10112.159    
     43300   304.877       -3245.8957     -3263.5112      17.615575      7188.6747      10112.159    
     43400   303.11544     -3245.6626     -3263.1764      17.513793      7063.7878      10112.159    
     43500   290.08036     -3246.4352     -3263.1959      16.760636      6731.2783      10112.159    
     43600   313.51243     -3246.6935     -3264.808       18.114524      6642.4675      10112.159    
     43700   292.95866     -3247.0369     -3263.9638      16.926942      6601.2058      10112.159    
     43800   276.74323     -3247.4986     -3263.4887      15.990026      6997.0489      10112.159    
     43900   292.62948     -3247.1172     -3264.0251      16.907922      6624.4306      10112.159    
     44000   311.06718     -3246.0425     -3264.0157      17.973239      6756.8612      10112.159    
     44100   321.5282      -3245.1642     -3263.7418      18.577669      6960.5022      10112.159    
     44200   306.00436     -3245.3468     -3263.0275      17.680713      7064.0209      10112.159    
     44300   287.91661     -3247.2448     -3263.8805      16.635616      6552.5579      10112.159    
     44400   289.55494     -3247.6942     -3264.4245      16.730277      6329.8511      10112.159    
     44500   297.01758     -3247.1985     -3264.3599      17.161463      6777.519       10112.159    
     44600   310.85321     -3246.0999     -3264.0608      17.960876      6796.9687      10112.159    
     44700   306.66008     -3245.1362     -3262.8548      17.7186        7167.7076      10112.159    
     44800   307.14592     -3245.0554     -3262.8021      17.746672      7313.5068      10112.159    
     44900   301.1123      -3245.65       -3263.0481      17.398054      6902.8603      10112.159    
     45000   324.2313      -3245.9976     -3264.7314      18.733853      6832.5311      10112.159    
     45100   285.43638     -3247.2254     -3263.7177      16.49231       6718.527       10112.159    
     45200   300.92015     -3247.0149     -3264.4019      17.386951      6828.9707      10112.159    
     45300   294.55202     -3246.1516     -3263.1707      17.019005      6996.116       10112.159    
     45400   320.50351     -3244.8121     -3263.3305      18.518463      6870.9675      10112.159    
     45500   298.66815     -3245.3728     -3262.6297      17.256832      7191.6711      10112.159    
     45600   296.95073     -3247.4456     -3264.6032      17.157601      6674.4946      10112.159    
     45700   289.24346     -3248.1319     -3264.8442      16.71228       6423.9994      10112.159    
     45800   283.21474     -3247.5245     -3263.8885      16.363945      6678.5723      10112.159    
     45900   293.31528     -3246.2675     -3263.2151      16.947547      7078.9576      10112.159    
     46000   321.26963     -3245.4255     -3263.9882      18.56273       6893.5365      10112.159    
     46100   293.16231     -3245.947      -3262.8857      16.938709      6915.3526      10112.159    
     46200   299.83911     -3246.3519     -3263.6764      17.324489      6892.2614      10112.159    
     46300   301.0811      -3246.6486     -3264.0448      17.396251      6868.0976      10112.159    
     46400   291.96915     -3247.4269     -3264.2967      16.869769      6646.451       10112.159    
     46500   277.51525     -3248.5491     -3264.5838      16.034633      6585.6137      10112.159    
     46600   289.05323     -3247.6583     -3264.3596      16.701289      6603.8447      10112.159    
     46700   308.46799     -3246.2309     -3264.0539      17.82306       6741.1038      10112.159    
     46800   298.54148     -3245.8893     -3263.1388      17.249513      7104.9094      10112.159    
     46900   315.15713     -3245.7936     -3264.0031      18.209553      6943.8514      10112.159    
     47000   304.73209     -3246.627      -3264.2342      17.607202      6714.235       10112.159    
     47100   273.32394     -3248.2045     -3263.997       15.792462      6503.7004      10112.159    
     47200   281.88272     -3248.218      -3264.505       16.286982      6407.9591      10112.159    
     47300   309.54241     -3246.8976     -3264.7827      17.885139      6557.8815      10112.159    
     47400   297.26831     -3246.2728     -3263.4487      17.17595       6983.8387      10112.159    
     47500   307.89328     -3245.8538     -3263.6436      17.789853      7214.6468      10112.159    
     47600   285.5319      -3246.4238     -3262.9217      16.497829      7128.6347      10112.159    
     47700   298.55308     -3247.2565     -3264.5067      17.250183      6705.6799      10112.159    
     47800   283.98929     -3248.6934     -3265.1021      16.408698      6383.7859      10112.159    
     47900   289.29873     -3248.1677     -3264.8832      16.715474      6495.2195      10112.159    
     48000   277.58254     -3247.0642     -3263.1027      16.038521      7134.2462      10112.159    
     48100   314.68598     -3246.2683     -3264.4507      18.182331      6972.0531      10112.159    
     48200   294.60499     -3246.4779     -3263.4999      17.022065      6958.8993      10112.159    
     48300   301.24391     -3246.4723     -3263.8779      17.405658      6930.9291      10112.159    
     48400   304.86535     -3246.1102     -3263.7251      17.614902      6978.7816      10112.159    
     48500   305.04067     -3245.5961     -3263.2212      17.625032      7267.6216      10112.159    
     48600   298.36771     -3245.9395     -3263.1789      17.239473      7084.0902      10112.159    
     48700   293.0862      -3247.2052     -3264.1395      16.934311      7016.2078      10112.159    
     48800   286.26958     -3247.8823     -3264.4228      16.540451      6538.2727      10112.159    
     48900   315.08512     -3246.8936     -3265.099       18.205393      6652.7614      10112.159    
     49000   301.7317      -3246.3679     -3263.8018      17.433842      6801.2472      10112.159    
     49100   279.93013     -3246.3287     -3262.5028      16.174163      7386.6166      10112.159    
     49200   298.5771      -3246.1905     -3263.4421      17.251571      7169.2666      10112.159    
     49300   306.19452     -3246.5692     -3264.2609      17.6917        6707.1908      10112.159    
     49400   304.97013     -3247.386      -3265.007       17.620956      6455.0416      10112.159    
     49500   279.86748     -3248.5178     -3264.6884      16.170543      6547.4459      10112.159    
     49600   288.45734     -3247.8592     -3264.526       16.666859      6784.2883      10112.159    
     49700   294.83667     -3246.4017     -3263.4372      17.035452      6993.0221      10112.159    
     49800   300.35422     -3245.9413     -3263.2955      17.354252      7199.342       10112.159    
     49900   306.21872     -3246.0531     -3263.7462      17.693099      6975.0346      10112.159    
     50000   294.38647     -3246.9252     -3263.9346      17.00944       7009.0371      10112.159    
     50100   278.23577     -3248.2752     -3264.3515      16.076264      6544.874       10112.159    
     50200   280.3868      -3248.5778     -3264.7784      16.200549      6522.9623      10112.159    
     50300   303.70661     -3246.6098     -3264.1577      17.547951      6711.3773      10112.159    
     50400   303.86827     -3245.7513     -3263.3086      17.557291      7077.0689      10112.159    
     50500   300.19135     -3245.8616     -3263.2065      17.344842      7201.2092      10112.159    
     50600   292.77926     -3246.5428     -3263.4593      16.916576      6902.8474      10112.159    
     50700   285.50661     -3247.6791     -3264.1755      16.496368      6802.7484      10112.159    
     50800   282.56574     -3248.5158     -3264.8422      16.326446      6584.4287      10112.159    
     50900   307.57028     -3247.3741     -3265.1453      17.771191      6625.2074      10112.159    
     51000   303.17341     -3246.3182     -3263.8354      17.517143      6937.5757      10112.159    
     51100   291.3192      -3246.3031     -3263.1353      16.832215      7006.8392      10112.159    
     51200   290.93858     -3246.3799     -3263.1901      16.810223      7012.6122      10112.159    
     51300   306.0409      -3246.637      -3264.3198      17.682825      6749.8706      10112.159    
     51400   293.27886     -3247.536      -3264.4815      16.945443      6599.8342      10112.159    
     51500   283.57096     -3247.6348     -3264.0193      16.384527      6695.6876      10112.159    
     51600   303.03881     -3246.0727     -3263.5821      17.509366      6949.6369      10112.159    
     51700   299.96154     -3245.518      -3262.8496      17.331563      7142.294       10112.159    
     51800   321.26255     -3245.5414     -3264.1037      18.56232       7058.1709      10112.159    
     51900   297.27069     -3247.4019     -3264.578       17.176088      6599.433       10112.159    
     52000   282.96615     -3247.8985     -3264.2481      16.349582      6729.6691      10112.159    
     52100   295.3948      -3247.1826     -3264.2503      17.0677        6737.2317      10112.159    
     52200   309.00905     -3246.2255     -3264.0798      17.854322      6967.69        10112.159    
     52300   301.37699     -3245.7582     -3263.1715      17.413347      7066.7798      10112.159    
     52400   301.79845     -3245.5127     -3262.9504      17.437699      7298.1552      10112.159    
     52500   297.57372     -3245.7631     -3262.9567      17.193597      7106.695       10112.159    
     52600   306.33452     -3246.6858     -3264.3856      17.699789      6594.2852      10112.159    
     52700   286.59659     -3247.659      -3264.2184      16.559346      6588.5963      10112.159    
     52800   299.3019      -3247.2878     -3264.5812      17.29345       6691.1581      10112.159    
     52900   310.26117     -3245.8269     -3263.7535      17.926668      6990.6534      10112.159    
     53000   311.45769     -3245.163      -3263.1588      17.995802      6880.113       10112.159    
     53100   299.18794     -3245.5135     -3262.8003      17.286865      7156.5238      10112.159    
     53200   315.5852      -3246.1846     -3264.4189      18.234287      6817.8625      10112.159    
     53300   282.63364     -3247.1325     -3263.4629      16.330369      6541.5775      10112.159    
     53400   311.87751     -3246.5551     -3264.5751      18.020059      6744.6143      10112.159    
     53500   292.95472     -3246.5498     -3263.4765      16.926714      6798.7157      10112.159    
     53600   287.28828     -3246.3843     -3262.9836      16.599311      6821.8052      10112.159    
     53700   318.72074     -3245.247      -3263.6625      18.415456      7383.1546      10112.159    
     53800   319.81156     -3244.7325     -3263.211       18.478483      7291.5879      10112.159    
     53900   316.62878     -3245.6483     -3263.9429      18.294584      6976.1317      10112.159    
     54000   294.17869     -3247.2162     -3264.2136      16.997435      6639.2085      10112.159    
     54100   269.59619     -3247.567      -3263.1441      15.577075      7100.6409      10112.159    
     54200   292.89917     -3246.7086     -3263.6321      16.923504      6763.9066      10112.159    
     54300   325.62417     -3245.5322     -3264.3465      18.814332      6804.3419      10112.159    
     54400   301.75023     -3245.6143     -3263.0492      17.434912      6949.2559      10112.159    
     54500   297.1769      -3245.8649     -3263.0356      17.170669      7167.3086      10112.159    
     54600   292.10262     -3246.5459     -3263.4234      16.87748       6957.7903      10112.159    
     54700   307.89574     -3246.5172     -3264.3072      17.789996      6708.498       10112.159    
     54800   302.27602     -3246.5583     -3264.0236      17.465292      6794.6555      10112.159    
     54900   291.37111     -3246.8763     -3263.7115      16.835214      6905.8051      10112.159    
     55000   296.02728     -3247.1835     -3264.2877      17.104245      6614.0151      10112.159    
     55100   304.51326     -3246.9667     -3264.5613      17.594558      6472.373       10112.159    
     55200   299.63236     -3246.1317     -3263.4443      17.312543      6953.9313      10112.159    
     55300   302.83346     -3245.355      -3262.8525      17.4975        7142.6327      10112.159    
     55400   305.23159     -3245.5651     -3263.2011      17.636063      6847.6897      10112.159    
     55500   300.21806     -3247.2401     -3264.5865      17.346385      6452.8369      10112.159    
     55600   294.31758     -3247.7609     -3264.7663      17.005459      6508.6827      10112.159    
     55700   279.34778     -3247.4828     -3263.6233      16.140515      6843.3136      10112.159    
     55800   303.22111     -3246.4289     -3263.9488      17.519899      6833.0851      10112.159    
     55900   304.44658     -3246.0235     -3263.6142      17.590706      6660.1148      10112.159    
     56000   303.63658     -3245.9274     -3263.4713      17.543905      6860.188       10112.159    
     56100   291.91798     -3246.4106     -3263.2774      16.866812      7072.0986      10112.159    
     56200   286.65747     -3247.1223     -3263.6852      16.562863      6768.8559      10112.159    
     56300   301.59621     -3248.1045     -3265.5305      17.426013      6293.5397      10112.159    
     56400   267.357       -3249.0623     -3264.51        15.447696      6402.9366      10112.159    
     56500   293.38351     -3247.5988     -3264.5503      16.951489      6734.066       10112.159    
     56600   292.1186      -3246.6106     -3263.489       16.878404      6805.7611      10112.159    
     56700   307.75518     -3245.9689     -3263.7507      17.781874      6857.134       10112.159    
     56800   304.35588     -3246.0409     -3263.6263      17.585465      6785.3655      10112.159    
     56900   300.09427     -3246.5729     -3263.9122      17.339233      6778.0473      10112.159    
     57000   278.41592     -3247.7787     -3263.8654      16.086673      6538.6503      10112.159    
     57100   296.52291     -3247.6048     -3264.7377      17.132882      6704.2437      10112.159    
     57200   297.26512     -3246.562      -3263.7377      17.175766      6851.4283      10112.159    
     57300   317.86254     -3244.9679     -3263.3337      18.36587       7360.6254      10112.159    
     57400   305.23786     -3245.185      -3262.8214      17.636425      7039.6589      10112.159    
     57500   296.16314     -3245.9423     -3263.0544      17.112095      7145.7997      10112.159    
     57600   300.20537     -3246.557      -3263.9027      17.345652      6827.1552      10112.159    
     57700   304.46756     -3247.2333     -3264.8252      17.591918      6626.8378      10112.159    
     57800   278.99469     -3248.5313     -3264.6515      16.120114      6341.1375      10112.159    
     57900   277.39304     -3249.3073     -3265.3349      16.027572      6261.75        10112.159    
     58000   288.25207     -3248.1382     -3264.7932      16.654998      6638.0306      10112.159    
     58100   281.29006     -3246.5298     -3262.7825      16.252739      7159.0899      10112.159    
     58200   310.88898     -3245.7151     -3263.678       17.962943      7076.4731      10112.159    
     58300   299.22343     -3246.0578     -3263.3467      17.288916      6996.9593      10112.159    
     58400   310.63904     -3246.4403     -3264.3888      17.948501      6740.8848      10112.159    
     58500   267.75347     -3247.9427     -3263.4133      15.470604      6863.2428      10112.159    
     58600   289.50387     -3247.8306     -3264.558       16.727326      6654.2392      10112.159    
     58700   303.31949     -3246.7227     -3264.2483      17.525583      6622.8572      10112.159    
     58800   312.98839     -3246.1168     -3264.201       18.084245      6765.9288      10112.159    
     58900   300.83566     -3246.1844     -3263.5664      17.382069      6814.88        10112.159    
     59000   295.55278     -3246.3415     -3263.4184      17.076828      7152.5913      10112.159    
     59100   287.12981     -3247.3112     -3263.9014      16.590155      6565.3647      10112.159    
     59200   300.18871     -3248.0611     -3265.4058      17.344689      6294.3677      10112.159    
     59300   306.02238     -3247.2541     -3264.9358      17.681754      6389.4239      10112.159    
     59400   287.71535     -3245.8997     -3262.5237      16.623987      7139.9287      10112.159    
     59500   300.83739     -3245.5575     -3262.9397      17.382169      7152.0252      10112.159    
     59600   303.62321     -3245.9282     -3263.4713      17.543132      7147.2091      10112.159    
     59700   301.42463     -3246.8407     -3264.2568      17.416099      6754.5004      10112.159    
     59800   295.95589     -3248.36       -3265.4601      17.100119      6318.4817      10112.159    
     59900   271.65359     -3249.2899     -3264.9858      15.69595       6202.684       10112.159    
     60000   293.50295     -3247.5225     -3264.4809      16.958391      6628.7331      10112.159    
     60100   300.91009     -3246.5498     -3263.9362      17.38637       6804.612       10112.159    
     60200   304.17459     -3245.9689     -3263.5439      17.57499       7170.2234      10112.159    
     60300   309.51414     -3245.8238     -3263.7073      17.883505      6904.2318      10112.159    
     60400   306.9966      -3246.4223     -3264.1604      17.738044      6789.0395      10112.159    
     60500   284.71242     -3247.3678     -3263.8183      16.45048       6871.3774      10112.159    
     60600   293.33858     -3247.1799     -3264.1288      16.948893      6745.6752      10112.159    
     60700   317.28672     -3245.5623     -3263.8949      18.3326        6935.6993      10112.159    
     60800   306.26664     -3244.9856     -3262.6815      17.695867      7215.9234      10112.159    
     60900   313.64299     -3245.5206     -3263.6427      18.122068      7074.8523      10112.159    
     61000   289.13419     -3247.0483     -3263.7542      16.705967      7016.8803      10112.159    
     61100   298.23469     -3247.1025     -3264.3343      17.231787      6515.8859      10112.159    
     61200   299.32238     -3246.7983     -3264.0929      17.294633      6733.7746      10112.159    
     61300   316.1997      -3245.6724     -3263.9422      18.269793      7068.3976      10112.159    
     61400   288.48899     -3245.5097     -3262.1784      16.668687      7372.7803      10112.159    
     61500   298.58861     -3246.1541     -3263.4064      17.252237      7138.8774      10112.159    
     61600   295.77963     -3247.9441     -3265.0341      17.089935      6438.0373      10112.159    
     61700   282.31098     -3247.9677     -3264.2795      16.311726      6587.273       10112.159    
     61800   293.80581     -3246.7072     -3263.6831      16.97589       6859.483       10112.159    
     61900   312.11436     -3246.0155     -3264.0492      18.033744      7042.562       10112.159    
     62000   293.60592     -3246.2552     -3263.2196      16.96434       7168.9896      10112.159    
     62100   295.17533     -3246.5448     -3263.5999      17.055019      6889.5148      10112.159    
     62200   287.54137     -3247.8151     -3264.429       16.613935      6858.9308      10112.159    
     62300   286.42383     -3248.579      -3265.1283      16.549364      6212.1693      10112.159    
     62400   296.27076     -3247.4188     -3264.5371      17.118312      6685.1723      10112.159    
     62500   299.96571     -3246.1339     -3263.4657      17.331804      6736.4597      10112.159    
     62600   306.87322     -3246.2754     -3264.0063      17.730915      7074.81        10112.159    
     62700   276.58625     -3246.968      -3262.9489      15.980956      7045.9798      10112.159    
     62800   298.19173     -3246.4379     -3263.6672      17.229305      6944.6158      10112.159    
     62900   320.16557     -3245.2406     -3263.7396      18.498938      7058.4283      10112.159    
     63000   318.25377     -3244.5922     -3262.9807      18.388475      7370.054       10112.159    
     63100   291.23737     -3246.3004     -3263.1279      16.827487      7215.2505      10112.159    
     63200   300.41951     -3247.0835     -3264.4415      17.358025      6662.7929      10112.159    
     63300   288.07445     -3247.187      -3263.8318      16.644736      6870.2234      10112.159    
     63400   303.39861     -3246.1815     -3263.7117      17.530155      7000.33        10112.159    
     63500   315.67947     -3245.1979     -3263.4376      18.239734      6853.2858      10112.159    
     63600   312.08252     -3245.5885     -3263.6204      18.031905      7075.4668      10112.159    
     63700   292.72453     -3246.2093     -3263.1228      16.913414      6944.9449      10112.159    
     63800   292.65325     -3246.4364     -3263.3457      16.909296      7044.2558      10112.159    
     63900   307.12443     -3246.717      -3264.4624      17.74543       6866.7217      10112.159    
     64000   299.85814     -3247.0531     -3264.3787      17.325589      6692.1176      10112.159    
     64100   298.54908     -3246.5215     -3263.7714      17.249952      6764.7589      10112.159    
     64200   303.00892     -3245.2009     -3262.7085      17.507639      7326.5308      10112.159    
     64300   327.80457     -3244.4492     -3263.3895      18.940314      7198.3472      10112.159    
     64400   292.27933     -3245.9204     -3262.8081      16.887691      6991.9454      10112.159    
     64500   312.10021     -3246.2759     -3264.3088      18.032927      6900.9598      10112.159    
     64600   290.4462      -3246.9067     -3263.6885      16.781774      6976.3513      10112.159    
     64700   291.60425     -3246.8929     -3263.7416      16.848685      6722.0442      10112.159    
     64800   321.71511     -3245.6771     -3264.2655      18.588469      6954.4346      10112.159    
     64900   306.56576     -3244.8449     -3262.5581      17.71315       7273.171       10112.159    
     65000   301.28764     -3244.6276     -3262.0358      17.408184      7617.3857      10112.159    
     65100   296.66703     -3246.4644     -3263.6056      17.141209      7023.2501      10112.159    
     65200   302.02575     -3247.248      -3264.6988      17.450832      6526.7968      10112.159    
     65300   298.79        -3247.1005     -3264.3643      17.263872      6672.5637      10112.159    
     65400   294.42865     -3246.2601     -3263.272       17.011877      7038.5701      10112.159    
     65500   309.12123     -3245.0083     -3262.8691      17.860804      7186.2625      10112.159    
     65600   329.00511     -3243.9358     -3262.9455      19.00968       7404.9996      10112.159    
     65700   300.36026     -3245.0118     -3262.3664      17.354601      7204.1127      10112.159    
     65800   300.67255     -3246.7337     -3264.1064      17.372645      6910.398       10112.159    
     65900   287.40259     -3247.3296     -3263.9355      16.605916      6753.5499      10112.159    
     66000   304.75561     -3246.6345     -3264.2431      17.608561      6796.4563      10112.159    
     66100   309.20004     -3245.7236     -3263.5889      17.865357      6964.9682      10112.159    
     66200   303.61127     -3245.6241     -3263.1665      17.542442      7078.6634      10112.159    
     66300   305.24587     -3246.7497     -3264.3866      17.636888      7019.2675      10112.159    
     66400   269.01332     -3248.0851     -3263.6285      15.543397      6841.811       10112.159    
     66500   303.67137     -3247.3226     -3264.8685      17.545914      6588.9834      10112.159    
     66600   305.13038     -3246.4194     -3264.0496      17.630215      6799.1549      10112.159    
     66700   301.28621     -3245.9806     -3263.3887      17.408102      6897.0999      10112.159    
     66800   286.67586     -3246.1067     -3262.6706      16.563926      7124.1541      10112.159    
     66900   312.17477     -3246.0376     -3264.0748      18.037235      6744.3359      10112.159    
     67000   285.67138     -3246.5111     -3263.017       16.505888      6885.8241      10112.159    
     67100   314.69405     -3246.2888     -3264.4716      18.182797      6518.8211      10112.159    
     67200   292.24684     -3246.8691     -3263.7549      16.885813      7045.9805      10112.159    
     67300   283.64736     -3247.7286     -3264.1175      16.388942      6470.064       10112.159    
     67400   278.19327     -3248.0973     -3264.1711      16.073808      6429.557       10112.159    
     67500   308.05643     -3246.7449     -3264.5442      17.79928       6549.5177      10112.159    
     67600   297.22888     -3245.7919     -3262.9656      17.173672      7115.3261      10112.159    
     67700   320.8573      -3245.4219     -3263.9608      18.538906      6971.52        10112.159    
     67800   296.18941     -3246.0731     -3263.1867      17.113612      6837.734       10112.159    
     67900   293.99663     -3246.4454     -3263.4323      16.986915      6957.2344      10112.159    
     68000   299.1387      -3246.6623     -3263.9464      17.28402       6828.6645      10112.159    
     68100   296.85691     -3246.8007     -3263.9529      17.15218       6825.3534      10112.159    
     68200   288.58589     -3246.6813     -3263.3556      16.674286      6976.7138      10112.159    
     68300   299.36522     -3246.4856     -3263.7827      17.297108      6798.1367      10112.159    
     68400   300.38144     -3246.37       -3263.7258      17.355825      6981.1412      10112.159    
     68500   309.8477      -3246.4098     -3264.3126      17.902778      6735.6545      10112.159    
     68600   295.7392      -3246.9765     -3264.0641      17.087599      6669.0652      10112.159    
     68700   303.2441      -3246.9055     -3264.4267      17.521227      6858.9368      10112.159    
     68800   292.73138     -3246.5448     -3263.4586      16.91381       6863.7151      10112.159    
     68900   309.40069     -3245.5473     -3263.4242      17.876951      7119.9704      10112.159    
     69000   305.85541     -3245.4272     -3263.0993      17.672107      7156.7305      10112.159    
     69100   298.12251     -3246.5708     -3263.7961      17.225306      6718.6815      10112.159    
     69200   290.77679     -3247.5029     -3264.3037      16.800875      6785.5536      10112.159    
     69300   298.69429     -3247.2542     -3264.5125      17.258343      6535.5294      10112.159    
     69400   281.46754     -3246.828      -3263.091       16.262993      6960.7249      10112.159    
     69500   315.44167     -3244.8752     -3263.1012      18.225994      7170.84        10112.159    
     69600   334.31992     -3244.7438     -3264.0606      19.316766      6997.3528      10112.159    
     69700   297.5912      -3246.0254     -3263.22        17.194607      6930.5356      10112.159    
     69800   297.99633     -3246.7241     -3263.9421      17.218015      6764.1572      10112.159    
     69900   287.72154     -3247.2371     -3263.8615      16.624345      6699.5205      10112.159    
     70000   296.04559     -3246.8338     -3263.9391      17.105302      6941.5718      10112.159    
     70100   308.25204     -3246.2389     -3264.0495      17.810583      6903.3281      10112.159    
     70200   290.32066     -3246.3103     -3263.0849      16.77452       7141.7196      10112.159    
     70300   296.92731     -3246.3972     -3263.5535      17.156248      7049.3337      10112.159    
     70400   303.13075     -3246.5687     -3264.0834      17.514678      6920.3903      10112.159    
     70500   292.04094     -3246.5726     -3263.4466      16.873917      7054.0759      10112.159    
     70600   300.36685     -3245.9647     -3263.3197      17.354982      6989.9891      10112.159    
     70700   307.61135     -3245.5176     -3263.2911      17.773564      7023.5112      10112.159    
     70800   296.84511     -3246.0764     -3263.2279      17.151498      6950.0577      10112.159    
     70900   296.15225     -3247.2613     -3264.3728      17.111465      6804.9814      10112.159    
     71000   295.52902     -3247.5648     -3264.6402      17.075456      6569.4344      10112.159    
     71100   286.27398     -3246.9416     -3263.4823      16.540706      6865.5572      10112.159    
     71200   316.40696     -3244.8643     -3263.146       18.281768      7117.8727      10112.159    
     71300   315.97901     -3245.1512     -3263.4083      18.257041      7327.8398      10112.159    
     71400   287.04565     -3246.3844     -3262.9697      16.585293      7026.4235      10112.159    
     71500   301.05193     -3246.8783     -3264.2729      17.394565      6746.2255      10112.159    
     71600   291.97116     -3247.3975     -3264.2673      16.869885      6555.6355      10112.159    
     71700   308.79934     -3246.4923     -3264.3345      17.842205      6809.023       10112.159    
     71800   293.8063      -3245.1374     -3262.1133      16.975918      7670.8087      10112.159    
     71900   315.34261     -3244.5012     -3262.7215      18.22027       7160.8666      10112.159    
     72000   316.91627     -3245.7832     -3264.0944      18.311196      6948.3999      10112.159    
     72100   301.60939     -3246.8916     -3264.3184      17.426775      6555.6388      10112.159    
     72200   281.23432     -3247.1329     -3263.3824      16.249518      6976.9214      10112.159    
     72300   301.61531     -3246.2723     -3263.6994      17.427117      7030.5203      10112.159    
     72400   301.40915     -3245.7238     -3263.139       17.415205      6978.7406      10112.159    
     72500   321.70086     -3245.694      -3264.2817      18.587645      6980.5987      10112.159    
     72600   286.5847      -3247.0718     -3263.6304      16.558659      6877.9923      10112.159    
     72700   289.98232     -3247.6523     -3264.4073      16.754971      6763.4295      10112.159    
     72800   295.62518     -3247.1791     -3264.2601      17.081012      6701.7436      10112.159    
     72900   307.58601     -3245.4227     -3263.1948      17.772099      7147.0794      10112.159    
     73000   295.71081     -3245.3054     -3262.3913      17.085959      7403.0899      10112.159    
     73100   321.80558     -3245.6072     -3264.2009      18.593696      7009.7472      10112.159    
     73200   301.72965     -3246.5593     -3263.993       17.433723      6871.0061      10112.159    
     73300   286.4129      -3246.9375     -3263.4862      16.548733      6833.5862      10112.159    
     73400   297.24191     -3246.7497     -3263.9241      17.174425      6845.6172      10112.159    
     73500   291.62004     -3247.0321     -3263.8816      16.849597      6938.2819      10112.159    
     73600   305.23912     -3246.9819     -3264.6184      17.636498      6879.8687      10112.159    
     73700   304.27074     -3246.3261     -3263.9067      17.580546      6899.2566      10112.159    
     73800   293.8189      -3245.702      -3262.6786      16.976646      7264.7594      10112.159    
     73900   290.69844     -3245.4058     -3262.2022      16.796348      7389.378       10112.159    
     74000   309.09016     -3246.1809     -3264.0399      17.859008      6831.0899      10112.159    
     74100   305.85797     -3247.3864     -3265.0586      17.672255      6586.051       10112.159    
     74200   303.66854     -3247.2926     -3264.8383      17.545751      6714.3396      10112.159    
     74300   286.47519     -3246.6863     -3263.2387      16.552332      7156.3132      10112.159    
     74400   299.10189     -3245.2443     -3262.5262      17.281893      7431.0531      10112.159    
     74500   324.54303     -3244.3956     -3263.1475      18.751864      7192.6214      10112.159    
     74600   301.4334      -3246.1642     -3263.5808      17.416606      6966.0277      10112.159    
     74700   287.24084     -3247.6402     -3264.2367      16.59657       6576.5108      10112.159    
     74800   287.78924     -3247.7841     -3264.4124      16.628257      6787.5408      10112.159    
     74900   299.74197     -3246.7555     -3264.0744      17.318877      6801.1651      10112.159    
     75000   299.33739     -3245.4902     -3262.7857      17.2955        7234.6681      10112.159    
     75100   316.74756     -3245.4639     -3263.7654      18.301448      6973.0172      10112.159    
     75200   301.48006     -3246.1639     -3263.5832      17.419302      6840.2752      10112.159    
     75300   313.15904     -3246.4821     -3264.5762      18.094106      6803.6483      10112.159    
     75400   274.96344     -3247.1601     -3263.0473      15.887191      6988.3505      10112.159    
[...]
    281800   299.57077     -3246.4143     -3263.7233      17.308985      7142.706       10112.159    
    281900   287.78176     -3247.6606     -3264.2884      16.627825      6345.0208      10112.159    
    282000   300.77794     -3247.7496     -3265.1283      17.378734      6609.2427      10112.159    
    282100   296.07502     -3245.8411     -3262.9481      17.107003      6825.4991      10112.159    
    282200   316.23107     -3244.2507     -3262.5224      18.271605      7436.9867      10112.159    
    282300   320.32072     -3244.9404     -3263.4483      18.507902      6984.3478      10112.159    
    282400   303.44549     -3246.4719     -3264.0048      17.532863      6645.6657      10112.159    
    282500   289.60621     -3247.4283     -3264.1616      16.73324       6714.5864      10112.159    
    282600   286.20245     -3247.4237     -3263.9602      16.536573      6780.5327      10112.159    
    282700   303.80419     -3246.0591     -3263.6126      17.553589      6907.7566      10112.159    
    282800   318.20287     -3245.5061     -3263.8917      18.385534      7175.8375      10112.159    
    282900   302.88253     -3245.8995     -3263.3998      17.500336      6985.7856      10112.159    
    283000   290.15703     -3246.2583     -3263.0233      16.765066      6935.2839      10112.159    
    283100   304.62707     -3246.2786     -3263.8797      17.601134      6792.7144      10112.159    
    283200   303.54713     -3246.5571     -3264.0958      17.538736      6840.7208      10112.159    
    283300   290.59403     -3247.1281     -3263.9184      16.790315      6904.2883      10112.159    
    283400   291.05373     -3248.5556     -3265.3725      16.816877      6338.6232      10112.159    
    283500   284.11041     -3248.7248     -3265.1405      16.415696      6452.0605      10112.159    
    283600   290.88429     -3247.3571     -3264.1642      16.807086      6699.4828      10112.159    
    283700   290.29293     -3246.2815     -3263.0545      16.772918      7279.0045      10112.159    
    283800   306.8873      -3245.903      -3263.6347      17.731729      6976.5297      10112.159    
    283900   297.19335     -3246.3483     -3263.5199      17.171619      6971.1734      10112.159    
    284000   297.5525      -3247.1751     -3264.3675      17.192371      6733.0599      10112.159    
    284100   276.40195     -3248.4316     -3264.4019      15.970307      6482.6213      10112.159    
    284200   293.01591     -3247.5679     -3264.4982      16.93025       6539.5129      10112.159    
    284300   289.83478     -3246.9053     -3263.6517      16.746446      6509.5344      10112.159    
    284400   301.83068     -3246.4912     -3263.9307      17.439561      6917.7808      10112.159    
    284500   303.03239     -3246.3337     -3263.8427      17.508995      6808.531       10112.159    
    284600   301.28819     -3245.9725     -3263.3807      17.408216      7085.7956      10112.159    
    284700   303.40911     -3245.1175     -3262.6483      17.530761      7259.0272      10112.159    
    284800   307.50527     -3245.2019     -3262.9693      17.767435      7469.9607      10112.159    
    284900   296.19236     -3246.6043     -3263.7181      17.113783      6743.9906      10112.159    
    285000   284.46113     -3247.5954     -3264.0313      16.435961      6881.5704      10112.159    
    285100   304.91972     -3247.2529     -3264.8709      17.618044      6474.719       10112.159    
    285200   281.59779     -3246.8917     -3263.1622      16.270519      6962.2656      10112.159    
    285300   313.7188      -3245.3469     -3263.4733      18.126448      6999.3316      10112.159    
    285400   308.07055     -3245.1792     -3262.9793      17.800096      6990.1434      10112.159    
    285500   312.59535     -3245.6237     -3263.6853      18.061536      6892.491       10112.159    
    285600   289.73331     -3246.8385     -3263.5791      16.740583      6632.2112      10112.159    
    285700   295.28243     -3247.4228     -3264.484       17.061208      6600.577       10112.159    
    285800   294.14751     -3247.2929     -3264.2886      16.995633      6634.181       10112.159    
    285900   312.02529     -3245.3375     -3263.3661      18.028598      7220.3892      10112.159    
    286000   303.05431     -3245.1796     -3262.6898      17.510262      7186.7708      10112.159    
    286100   311.30162     -3245.6859     -3263.6727      17.986785      7037.9338      10112.159    
    286200   292.25743     -3246.9507     -3263.8371      16.886425      6949.0624      10112.159    
    286300   287.83835     -3247.3278     -3263.9589      16.631094      6569.3807      10112.159    
    286400   292.59243     -3246.9668     -3263.8726      16.905781      6877.8277      10112.159    
    286500   307.71725     -3246.3426     -3264.1223      17.779683      6541.7649      10112.159    
    286600   294.92749     -3246.1565     -3263.1972      17.040699      7230.5815      10112.159    
    286700   319.17774     -3245.8105     -3264.2523      18.441862      6713.6783      10112.159    
    286800   296.94934     -3246.7472     -3263.9047      17.15752       6620.3741      10112.159    
    286900   299.3569      -3247.3279     -3264.6246      17.296628      6406.7827      10112.159    
    287000   288.33488     -3247.5321     -3264.1919      16.659783      6580.5141      10112.159    
    287100   305.99676     -3246.6446     -3264.3249      17.680274      6538.9385      10112.159    
    287200   298.03719     -3245.4515     -3262.6719      17.220376      7244.066       10112.159    
    287300   318.66278     -3245.0647     -3263.4768      18.412107      7030.9174      10112.159    
    287400   298.57874     -3245.9698     -3263.2215      17.251666      6843.3096      10112.159    
    287500   305.67706     -3246.1966     -3263.8584      17.661802      6877.3613      10112.159    
    287600   292.80433     -3246.5829     -3263.5009      16.918025      6811.5098      10112.159    
    287700   295.30093     -3246.9012     -3263.9634      17.062276      6672.7979      10112.159    
    287800   303.5552      -3247.1041     -3264.6433      17.539202      6447.8553      10112.159    
    287900   298.61741     -3246.8588     -3264.1127      17.2539        6680.0273      10112.159    
    288000   302.16272     -3246.042      -3263.5007      17.458746      7006.7348      10112.159    
    288100   323.53988     -3245.108      -3263.8019      18.693903      6988.235       10112.159    
    288200   300.1237      -3245.5077     -3262.8487      17.340933      7053.5905      10112.159    
    288300   292.86814     -3247.1654     -3264.0872      16.921712      6566.6347      10112.159    
    288400   289.69087     -3247.8251     -3264.5632      16.738132      6583.4781      10112.159    
    288500   290.56361     -3247.3511     -3264.1397      16.788558      6578.6002      10112.159    
    288600   314.22783     -3246.0491     -3264.2049      18.155859      7075.7199      10112.159    
    288700   303.93958     -3245.5269     -3263.0883      17.561411      6964.3248      10112.159    
    288800   285.81775     -3245.7958     -3262.3101      16.514345      7401.4067      10112.159    
    288900   306.85198     -3246.3302     -3264.0599      17.729688      6754.2823      10112.159    
    289000   303.31972     -3246.9193     -3264.4449      17.525596      6630.9582      10112.159    
    289100   292.50311     -3246.8963     -3263.7969      16.900621      6454.7714      10112.159    
    289200   310.21075     -3246.3176     -3264.2413      17.923755      6911.835       10112.159    
    289300   290.56758     -3246.5843     -3263.3731      16.788787      6873.703       10112.159    
    289400   301.90392     -3246.333      -3263.7768      17.443793      7104.7704      10112.159    
    289500   307.91558     -3246.2736     -3264.0647      17.791142      6831.8392      10112.159    
    289600   312.14473     -3246.2583     -3264.2938      18.035499      6682.2915      10112.159    
    289700   296.22713     -3246.4962     -3263.6119      17.115792      6785.3563      10112.159    
    289800   278.5953      -3247.1081     -3263.2052      16.097037      6861.7373      10112.159    
    289900   316.49241     -3247.0826     -3265.3693      18.286705      6483.6151      10112.159    
    290000   298.90614     -3246.2469     -3263.5175      17.270583      6916.5148      10112.159    
    290100   305.69472     -3245.1089     -3262.7717      17.662823      7074.9786      10112.159    
    290200   311.43343     -3245.2239     -3263.2183      17.994401      7017.0391      10112.159    
    290300   310.36268     -3246.3233     -3264.2558      17.932533      6581.0591      10112.159    
    290400   286.85044     -3247.0023     -3263.5763      16.574013      6755.3484      10112.159    
    290500   296.76532     -3246.9478     -3264.0947      17.146888      6739.8757      10112.159    
    290600   308.84628     -3246.4127     -3264.2576      17.844917      6810.8453      10112.159    
    290700   297.4857      -3246.0238     -3263.2123      17.188511      7177.286       10112.159    
    290800   304.69717     -3245.3107     -3262.9158      17.605184      7346.399       10112.159    
    290900   305.88756     -3244.5401     -3262.2141      17.673964      7374.4146      10112.159    
    291000   307.79559     -3245.6195     -3263.4037      17.784209      6903.9661      10112.159    
    291100   320.12619     -3246.5512     -3265.0478      18.496662      6568.7415      10112.159    
    291200   284.33514     -3247.1703     -3263.599       16.428681      6803.1249      10112.159    
    291300   285.1929      -3246.941      -3263.4193      16.478242      6981.535       10112.159    
    291400   291.7013      -3245.9392     -3262.7935      16.854293      6992.7857      10112.159    
    291500   332.38916     -3244.2891     -3263.4943      19.205208      6867.9455      10112.159    
    291600   315.45751     -3245.0865     -3263.3134      18.22691       6872.1215      10112.159    
    291700   300.36866     -3246.2594     -3263.6145      17.355086      6769.6849      10112.159    
    291800   285.04844     -3246.895      -3263.3649      16.469895      6960.0505      10112.159    
    291900   284.97991     -3247.0353     -3263.5013      16.465935      6784.1507      10112.159    
    292000   320.61624     -3246.1038     -3264.6288      18.524977      6633.6838      10112.159    
    292100   315.75144     -3244.7421     -3262.986       18.243892      7136.5789      10112.159    
    292200   319.04579     -3243.1573     -3261.5915      18.434238      7736.7173      10112.159    
    292300   305.39974     -3244.2315     -3261.8773      17.645779      7520.4644      10112.159    
    292400   319.73926     -3245.3483     -3263.8226      18.474306      6818.3002      10112.159    
    292500   293.72279     -3246.6417     -3263.6128      16.971093      6807.4719      10112.159    
    292600   304.38147     -3247.0344     -3264.6214      17.586943      6606.1469      10112.159    
    292700   279.03411     -3247.1772     -3263.2996      16.122391      6679.9378      10112.159    
    292800   322.34183     -3245.8355     -3264.4602      18.624681      6785.2366      10112.159    
    292900   293.3522      -3245.6666     -3262.6162      16.94968       6977.806       10112.159    
    293000   307.63508     -3245.091      -3262.866       17.774935      7381.3597      10112.159    
    293100   320.46334     -3244.7204     -3263.2365      18.516142      6977.9252      10112.159    
    293200   311.72848     -3246.0843     -3264.0957      18.011449      6810.3427      10112.159    
    293300   295.38964     -3247.2144     -3264.2818      17.067402      6671.752       10112.159    
    293400   282.51931     -3247.263      -3263.5867      16.323763      6725.9899      10112.159    
    293500   307.84211     -3246.3461     -3264.133       17.786897      6936.8316      10112.159    
    293600   298.60373     -3245.6516     -3262.9047      17.25311       6851.6842      10112.159    
    293700   328.1862      -3243.7464     -3262.7088      18.962364      7369.9243      10112.159    
    293800   304.97459     -3244.7176     -3262.3389      17.621214      7272.4817      10112.159    
    293900   301.52622     -3245.9468     -3263.3688      17.421969      7184.6044      10112.159    
    294000   294.08356     -3246.8737     -3263.8656      16.991938      6705.7725      10112.159    
    294100   308.68352     -3246.8117     -3264.6472      17.835513      6514.9062      10112.159    
    294200   296.79587     -3246.7398     -3263.8885      17.148653      6754.2271      10112.159    
    294300   312.32651     -3245.9962     -3264.0422      18.046003      6983.5078      10112.159    
    294400   293.9758      -3245.1126     -3262.0983      16.985711      7368.738       10112.159    
    294500   306.41794     -3245.1938     -3262.8985      17.704609      7171.6142      10112.159    
    294600   320.79076     -3246.2858     -3264.8208      18.535061      6728.7793      10112.159    
    294700   287.08057     -3247.5873     -3264.1746      16.58731       6272.5037      10112.159    
    294800   293.50395     -3247.3732     -3264.3316      16.958448      6627.3739      10112.159    
    294900   288.06779     -3246.9131     -3263.5575      16.644351      6684.5771      10112.159    
    295000   293.30578     -3245.9725     -3262.9195      16.946998      7138.7014      10112.159    
    295100   321.7201      -3244.9807     -3263.5695      18.588757      7111.8634      10112.159    
    295200   310.36755     -3245.9199     -3263.8527      17.932815      6845.4585      10112.159    
    295300   281.52923     -3247.9989     -3264.2654      16.266557      6469.0927      10112.159    
    295400   299.15934     -3247.3339     -3264.6192      17.285213      6585.2695      10112.159    
    295500   299.49723     -3246.2033     -3263.508       17.304736      6967.2715      10112.159    
    295600   293.51097     -3245.6152     -3262.5741      16.958854      7360.347       10112.159    
    295700   302.37737     -3245.5585     -3263.0296      17.471148      6988.3004      10112.159    
    295800   302.4306      -3246.8547     -3264.3289      17.474224      6596.4466      10112.159    
    295900   296.15255     -3248.002      -3265.1134      17.111482      6348.1566      10112.159    
    296000   284.60585     -3247.6379     -3264.0822      16.444322      6597.5923      10112.159    
    296100   292.05823     -3246.5462     -3263.4211      16.874916      6849.2981      10112.159    
    296200   292.78907     -3246.1396     -3263.0568      16.917143      7039.2799      10112.159    
    296300   304.72063     -3246.0307     -3263.6373      17.60654       6962.0436      10112.159    
    296400   315.13976     -3246.36       -3264.5685      18.20855       6638.1274      10112.159    
    296500   291.54118     -3248.0206     -3264.8656      16.845041      6288.8536      10112.159    
    296600   272.26036     -3248.6505     -3264.3815      15.731009      6290.8895      10112.159    
    296700   287.77451     -3247.6456     -3264.273       16.627405      6689.1631      10112.159    
    296800   300.12794     -3246.8483     -3264.1895      17.341178      6486.6371      10112.159    
    296900   309.97498     -3246.1667     -3264.0768      17.910133      6716.8462      10112.159    
    297000   297.57959     -3245.818      -3263.012       17.193936      7009.3998      10112.159    
    297100   290.1705      -3245.8745     -3262.6403      16.765844      7410.3367      10112.159    
    297200   297.36916     -3247.1688     -3264.3505      17.181777      6530.2249      10112.159    
    297300   291.5358      -3247.9892     -3264.834       16.84473       6359.1492      10112.159    
    297400   298.77927     -3247.1954     -3264.4587      17.263252      6740.8083      10112.159    
    297500   298.33139     -3246.2044     -3263.4417      17.237374      6790.0987      10112.159    
    297600   285.5303      -3246.1412     -3262.6389      16.497737      7236.0025      10112.159    
    297700   311.49279     -3245.8638     -3263.8616      17.99783       6870.0872      10112.159    
    297800   296.07546     -3246.7273     -3263.8343      17.107028      6770.9257      10112.159    
    297900   300.4246      -3248.032      -3265.3903      17.358318      6410.5761      10112.159    
    298000   271.90049     -3248.9638     -3264.674       15.710216      6371.254       10112.159    
    298100   295.02027     -3246.9665     -3264.0126      17.04606       6611.3538      10112.159    
    298200   301.82358     -3245.9804     -3263.4195      17.439151      7071.0454      10112.159    
    298300   305.03031     -3245.6579     -3263.2824      17.624433      7037.1192      10112.159    
    298400   296.84783     -3246.464      -3263.6156      17.151655      6635.5898      10112.159    
    298500   292.04937     -3247.2652     -3264.1396      16.874404      6755.9439      10112.159    
    298600   299.8437      -3246.7128     -3264.0376      17.324755      6662.8508      10112.159    
    298700   304.56736     -3245.5965     -3263.1942      17.597684      7019.0765      10112.159    
    298800   337.06719     -3244.2469     -3263.7224      19.475501      7005.8079      10112.159    
    298900   303.69036     -3243.6543     -3261.2013      17.547012      7693.5174      10112.159    
    299000   310.75659     -3245.2837     -3263.239       17.955294      7050.3816      10112.159    
    299100   303.59813     -3246.5126     -3264.0543      17.541683      6874.9182      10112.159    
    299200   298.99015     -3246.7711     -3264.0465      17.275437      6869.7567      10112.159    
    299300   301.62506     -3246.6731     -3264.1008      17.42768       6509.9058      10112.159    
    299400   291.60622     -3247.0138     -3263.8626      16.848799      6895.7713      10112.159    
    299500   308.42898     -3246.4355     -3264.2564      17.820806      6518.8987      10112.159    
    299600   301.96046     -3245.6549     -3263.1019      17.44706       7248.75        10112.159    
    299700   300.35274     -3245.321      -3262.6751      17.354166      7152.6799      10112.159    
    299800   306.68715     -3245.152      -3262.8721      17.720164      7311.0573      10112.159    
    299900   313.29463     -3246.3672     -3264.4692      18.101939      6762.7251      10112.159    
    300000   288.91102     -3247.6606     -3264.3537      16.693072      6711.5767      10112.159    
Loop time of 2260.72 on 20 procs for 300000 steps with 448 atoms

Performance: 11.465 ns/day, 2.093 hours/ns, 132.701 timesteps/s, 59.450 katom-step/s
99.9% CPU use with 20 MPI tasks x 1 OpenMP threads

MPI task timing breakdown:
Section |  min time  |  avg time  |  max time  |%varavg| %total
---------------------------------------------------------------
Pair    | 1751.7     | 2000.3     | 2162.7     | 415.3 | 88.48
Neigh   | 20.303     | 28.582     | 35.221     | 120.7 |  1.26
Comm    | 60.082     | 228.78     | 484.79     |1270.5 | 10.12
Output  | 0.3482     | 0.57551    | 0.63986    |   7.8 |  0.03
Modify  | 2.0789     | 2.2208     | 2.4923     |   7.6 |  0.10
Other   |            | 0.2845     |            |       |  0.01

Nlocal:           22.4 ave          24 max          17 min
Histogram: 2 1 1 0 0 1 0 1 2 12
Nghost:          494.3 ave         523 max         466 min
Histogram: 4 0 4 4 0 0 0 0 2 6
Neighs:              0 ave           0 max           0 min
Histogram: 20 0 0 0 0 0 0 0 0 0
FullNghs:       1278.5 ave        1379 max         969 min
Histogram: 2 1 0 1 0 1 0 1 2 12

Total # of neighbors = 25570
Ave neighs/atom = 57.075893
Neighbor list builds = 300000
Dangerous builds not checked
Total wall time: 0:37:40
