(written by ASE)

4861 atoms
2 atom types

0.0      47.496081794731396  xlo xhi
0.0      49.359376101810554  ylo yhi
0.0      46.322427954443121  zlo zhi

Masses

     1      178.48999995408445 # Hf
     2      15.998999995884349 # O

Atoms # charge

     1   1 0.00487656740697886        3.20847545677695        1.77477661545668      1.2884105995458699
     2   1 -0.00441741322653016        1.66739895647277     0.88725341898703203      3.7664812694486698
     3   1 0.00475601211299281      47.472427760932497      3.5401779303521099      3.7640744811111402
     4   1 -0.00264356395255783      1.5744044993298401      4.4812633708501899      1.1636361998834199
     5   1 0.00222424700214184        3.27996502882851      1.8210998450948199      6.3675241220912202
     6   1 -0.000607617503431137      1.5727384683975301     0.88185025167943099      8.9206501457378895
     7   1 -0.00681918689196138        47.4787926873544      3.5209784447421999      8.9571840942256493
     8   1 -0.00254688372836621      1.6487151317083899      4.5298328157592298      6.3513369996861604
     9   1 0.00113909571814848      3.1256208680750102      1.8128516034001201         11.575598307765
    10   1 0.00418808618636735        1.61539257885126     0.95540472780341901      14.160996440581201
    11   1 0.00327921086813582      0.0241152719728066      3.7529364045840099      14.029776629009501
    12   1 0.00425646474665883      1.6064373840150299      4.5803694935989103      11.504024545101901
    13   1 -0.00143296433176984      3.1999223662484502      1.8325282823870801      16.723202178151201
    14   1 0.00312485617280981        1.60999791065081     0.85691131655347696      19.259228184259499
    15   1 -0.00745017256737504         47.450994613187        3.57595237834422        19.2312050221406
    16   1 -0.00434131594904268        1.56848090986739      4.6130439906365996        16.5798512374746
    17   1 0.00856638195689632      3.1715955291684699      1.7474815240586601      21.769618838197399
    18   1 -0.013483207676186        1.53381628083943        1.27695137125919      24.252590780371801
    19   1 0.00941265217028421        47.3559425336719        3.72084664174236      24.500798843541499
    20   1 -0.0099337803831262      1.5812892390170901      4.2356866730225597      22.034225407314601
    21   1 -0.00177083442203161      3.1122508372122302        1.85844717389125      27.016854916118099
    22   1 -0.00269664683524726      1.5224995823258101     0.90473318283242599        29.6201099341041
    23   1 -0.00590747535294283    0.057580684057352297        3.72629180629654      29.498901133016499
    24   1 0.00425093695881987      1.5998525200617599      4.6400420260980102      26.911931518607702
    25   1 0.00607899988180874        3.21697044857551      1.9570287939778199      32.049801832656797
    26   1 -0.000449796904525079      1.6246137155306699      1.0440107575286299      34.714143089940599
    27   1 -0.00376440666302748    0.016380889783839999      3.6719943650637998      34.631185163944302
    28   1 0.00753980382663637      1.6155100982966399      4.5874231330597999      32.078842302560702
    29   1 0.00233642276152325      3.1791110496980099      1.9139851043406599      37.277793575234803
    30   1 0.00537515268291491      1.6980110855408701     0.96433598906043505      39.843331707824802
    31   1 0.000807155831544474    0.074366091465617595      3.7481458716324401        39.7938444333844
    32   1 -0.00623115257789264        1.63178689215813      4.6670294352756603        37.2719971580023
    33   1 -0.00917736277560324        3.22771239781494      1.7703302884971299      42.420501122915603
    34   1 0.000170093773582523      1.6481714086935599     0.93786706935697395      45.078742809388302
    35   1 -0.00230379196439126      47.491381513633897      3.6929326097644499      44.884211080511697
    36   1 0.00280529204283928      1.6999748836164501      4.6156404553777701      42.417004324161802
    37   1 -0.00237163955534937      3.2100160355939198      7.2470793420898598        1.14821545964586
    38   1 -0.00865141192811258      1.5796712836379201      6.2982740100249304      3.7435707991340501
    39   1 -0.00772135013666519    0.099505564456401005      9.0892140111677495      3.7777237286435401
    40   1 0.00161903324832193         1.6882931873383      10.127946466722401      1.1327133840632699
    41   1 0.0139209949204293      3.1569705127087899      7.2873926189327101      6.3424663250812996
    42   1 0.00613061185066066      1.5577153147731699      6.3029323066743697        8.88518389537216
    43   1 0.00025872206127278      0.0311006170215887      9.1377367960219509      9.0069102360904107
    44   1 -0.00251193350791372      1.6698615966281001      9.9248348757623006        6.30271161418354
    45   1 -0.00404274269905132      3.2206515895932299        7.26753968477278      11.474451907078601
    46   1 -0.000935311665024926      1.6151352272266599      6.4138921710410699      14.063575038062901
    47   1 0.00450157414810154    0.055948216731897198      9.1405758749515194        14.0598382354772
    48   1 0.000205504829094226      1.5750544608530599        10.0880867670674      11.571671829319399
    49   1 0.000191284722184592      3.1545794093492101        7.33389340233661      16.696902266652099
    50   1 -0.0030185216620683         1.5752291130622      6.3305678921717199      19.221766860646401
    51   1 -0.00507848259200358      0.0472668544515552      9.0535837669639996        19.2198181812822
    52   1 0.00734592456027456        1.61594340619056      10.051130438094001      16.665743578876899
    53   1 -0.0065942450705876      3.1420615655298398      7.3168559750854998      21.818548981484401
    54   1 -0.00691474655170392      1.5814341182962901      6.4633708363905704        24.4409543190215
    55   1 0.00617840521025649      47.451658319085702      9.1341353790315605      24.350700299696999
    56   1 0.000190192123204023        1.46328922636766        10.0730860388402      21.795813193988199
    57   1 -0.00227280140728287      3.1328628696076901      7.4153469471667401      26.985814309100501
    58   1 -0.00402335203987616        1.61820155566143      6.4540321124933202      29.436213040977599
    59   1 0.00415250678247432      47.454792525269603      9.2270576820190993      29.576151776119499
    60   1 0.000894754958341867      1.5220990653581901          10.06474327324      27.016834254176501
    61   1 0.000685292492390389      3.2064867123102898      7.3261535664779798      32.146631068975502
    62   1 0.000981998289384058      1.6235328492818399      6.4382053878440697      34.655371396592699
    63   1 -0.00256264171404915      0.0139267644729292      9.1803688510235997      34.654011668104701
    64   1 0.00597573196456448        1.59367889944936      10.053289234402399      32.115979246784903
    65   1 -0.00352996179573318      3.2421365761566401      7.4096220110164897      37.313784179362699
    66   1 -0.00272836067089609        1.54710999315227      6.5012444183632203      39.891592424108701
    67   1 -0.000767889865550971      47.473114031341701      9.2604780142618903        39.7488973922772
    68   1 0.00520543970426531        1.59567067996553        10.1346807952643      37.203376581210698
    69   1 -0.0029526377334404      3.2400205070759802      7.3514154793935402      42.424097610741804
    70   1 0.00833293567184904      1.5836135013953201      6.3663047327979596      44.964048181591998
    71   1 -0.00200348581636963    0.079396774428939304      9.1125429871552193      45.049796904304202
    72   1 -0.0112893380460776      1.5871577976012601        10.0023740284061      42.307607177082303
    73   1 0.0025580261019869      3.3001461328503501      12.822121212189399      1.1874551917490399
    74   1 -0.00255183936171848      1.7280063497271101        11.8032510646788        3.78438632826149
    75   1 -0.00117350521177984       0.105006246010643        14.5795267778467        3.77666212921529
    76   1 0.00298029474029493         1.6256104030823        15.5259382948928      1.1799006018053699
    77   1 0.00333983981957589        3.15877398870298      12.719190915566401      6.4384700172253604
    78   1 0.00209034884648648      1.5213351756056099      11.774406069227499        8.96703807120074
    79   1 0.00983978052434668      47.459058995556497        14.5321166981972      8.9205277166022796
    80   1 0.00272277308291755      1.5750006260049501      15.546972260334501      6.4110275630145299
    81   1 -0.00364988959399978      3.1060982195366398        12.7598501516916        11.5723121255179
    82   1 0.00301716739459862        1.53890988100602      11.895840260093999      14.156990464876699
    83   1 0.00133536741868381   0.0076657554968922702        14.6694186719452        14.1710022357895
    84   1 -0.00455613548087017      1.5873104752598901        15.5115335964497      11.585391292270799
    85   1 -0.00136653695510544      3.1127222837719999      12.871529236256499        16.6760857892545
    86   1 -0.00263181917273177        1.60167306551247      11.891196570422901        19.2016587325611
    87   1 -0.00745231547049647        47.4078680849641        14.6545146809455      19.215922230149999
    88   1 -0.00374717775155508      1.5380384735355199        15.5877976005969      16.705648146608201
    89   1 0.00910637760838064      3.0659376399045501        12.8799398410588         21.784481762515
    90   1 0.00154316852279726        1.58067981163673        11.8241214090115      24.436061676331001
    91   1 0.0043663446815689      47.347934233637503         14.655069354474      24.284917094339502
    92   1 0.00286796462131207      1.5639334784576899        15.5223666313022      21.868274619473301
    93   1 -0.00274963171019834      3.1128113329613898        12.7414923299501        26.9556639593848
    94   1 -0.00511956255395894        1.51921225715221      12.078045227922299        29.5240824126343
    95   1 0.0101291510206397      47.386144801265203        14.7589385104763      29.493133104309699
    96   1 -0.00357881060061377      1.4850545768157399      15.542644177163901        26.9937250367004
    97   1 0.0049429172336402      3.1378831446945501      12.826587876798101      32.145745143564099
    98   1 0.00391441125977329      1.5575978284160501        11.9133533334877      34.616026842992099
    99   1 -0.000898387519539004      47.473080137659899      14.681947367884799      34.676941255905099
   100   1 7.88880569312505e-05        1.61704633698286      15.525687829861001      32.027000821046101
   101   1 0.00300931560663748         3.1845863100992        12.7883895755562      37.213793613998497
   102   1 -0.00790045153780388      1.6304567739482601      11.872084195153599      39.734169521858497
   103   1 -0.000364400116786338      47.442284605687497      14.651096301545699      39.928964671931801
   104   1 -0.00979144987657702      1.5261585957686701      15.480133971504801      37.279788182053203
   105   1 -0.0043518140769278      3.1579513583009899        12.8178964129742      42.374764596798997
   106   1 0.00113523017399916      1.6698901714338901      11.948874358896999      44.928209947124003
   107   1 0.00558362132605108      47.484471554854203        14.6582659372955         44.972271751266
   108   1 0.00422025019134509        1.47084355637326      15.547138133150099      42.475285001371397
   109   1 -0.000497795942051336        3.15856981193394        18.2540582533411      1.2132247069779201
   110   1 -0.00325834322630518        1.60631304739582      17.394464006843801      3.8458313753409801
   111   1 -0.00686697936548903    0.042444360578583799        20.1022982813227        3.77567208213733
   112   1 0.00215640798038499      1.6748375134923501      20.942275740601701      1.1925256773789801
   113   1 -0.00554584267953919      3.1383166444614101        18.2980196992158      6.3813404654796901
   114   1 -0.00837634714951929      1.5216854642897299      17.287560895032598      8.9566426753559796
   115   1 0.00228812907863687       0.111640281042549      20.075472249696801      8.9883120338307592
   116   1 0.00433866856729894      1.5666467229126699      20.992252872037799      6.4302060420939897
   117   1 0.00321144129439941      3.1927311572048902      18.286127474456698      11.412033799919501
   118   1 0.00136617562532823      1.5569347255393999      17.426632618272901        14.1538772290541
   119   1 0.00483760290516836      47.490123512703498      20.052985628132799      14.196435964319001
   120   1 -0.00426366776626681        1.58450978418052      20.988886080951399        11.5240187885915
   121   1 0.00334228707717537      3.1651144321468601        18.3890380636924      16.774680855157801
   122   1 0.00426960481057998         1.5758812816882        17.3427783009401        19.3472367218485
   123   1 -0.00641319218166435      47.474819306674497        20.0361521485348        19.3067468015389
   124   1 0.00550454618269352      1.6199715363971501      21.008491680540001      16.771775623152301
   125   1 -0.00949895832334013      3.1336857990624201      18.351414074562999      21.902023153880901
   126   1 -0.00111436793671847        1.52451136132345      17.361583063751599      24.463129517900299
   127   1 0.00571522397823575    0.042668222408050099      20.160593483702101      24.510807360929299
   128   1 -0.000946549643962823      1.5374257728563501      20.987402084262399        21.8875549601659
   129   1 0.0064437136699102        3.02464362551504        18.3627238391222      27.030714777414101
   130   1 -0.00545997424349052        1.48233836992899      17.387610736007801        29.5314777378846
   131   1 0.000853182946998594      47.424472225766799      20.130184299626301      29.592929880573301
   132   1 0.00192529792827853      1.5443050915537799        21.1497004420204        27.0423899725863
   133   1 -0.00339698427801501      3.1919798460677198        18.3069781153959      32.147933942934998
   134   1 -0.00310221180823582      1.5235347357453299      17.351953760468501         34.671960709611
   135   1 0.00857701575831539      47.428646699803501      20.055569348661301      34.743794299921397
   136   1 -0.00978970785758806        1.51383659191533      21.005184713055101        32.1470946144618
   137   1 -0.00179493232942475      3.2238845899010302      18.208226028715799      37.260217362801598
   138   1 0.00748656954544617      1.6651202357942301      17.347497186401501      39.955573717004498
   139   1 0.00988440806203983        47.4678442791256      20.092312344487301      39.888115570362601
   140   1 0.00252366001396667      1.6040998640400801      20.981341350911599      37.322316601250201
   141   1 0.00110524005110779      3.1209801534083699      18.210593845668701      42.427658100831501
   142   1 0.00290179950553171        1.57805359906114      17.375934529692501      45.076882998043999
   143   1 0.00116528475849428      47.488231300904602      20.053165454827202         45.079858995471
   144   1 0.000338296594795712      1.5606196881926699      20.974944227657101      42.463677658364297
   145   1 -0.00430094161319639      3.2218472529197699        23.7400885728795      1.2745356283228799
   146   1 0.00155628893350237      1.5798286922937499        22.8068162253488      3.7450062194548002
   147   1 -0.00803819952409662    0.090360116624710995      25.636052639767701      3.8108070574055199
   148   1 -0.000413420955959927      1.5969341040354199      26.507566462966501      1.2264279533134399
   149   1 -0.00532716488842367      3.1223746779698498      23.741778882238599      6.3154344837320604
   150   1 -0.00233928030565655      1.6370375861728901      22.903593560573899      8.9665862224706192
   151   1 -0.00320006013234917    0.073904459524252203        25.6090531867126      8.9132382300538406
   152   1 0.00627477692693393      1.6451556681228401      26.516603652151598      6.2828244478042103
   153   1 0.00453884906751796      3.2045238366595399      23.762673982159999      11.577268025766299
   154   1 -0.00762633827168973      1.6159213464296101      22.766705856317198        14.1590650087602
   155   1 0.000805050563447888   0.0051145717304131701      25.613037997955701      14.153322735916801
   156   1 -0.00108150952633456      1.6456590513937699      26.505073969038101        11.5968604965814
   157   1 -0.00308462450634258      3.1510138210210199      23.701433700030702      16.678723234461302
   158   1 0.00718930258032198      1.5529880395953699         22.834697507784         19.255260545751
   159   1 0.00330327374681583    0.019234419634537901        25.6403823315515        19.2141610527772
   160   1 -0.00566835532936719      1.6643446559110799        26.5327644302618      16.587864576752199
   161   1 -0.00246939873520486      3.1562893181878402        23.7425724466523      21.781373425907098
   162   1 0.00223630112552567      1.5470116847034501      22.855018876478901      24.366759852292802
   163   1 -0.00268291215947884      47.486568520381098        25.5706668851216      24.441019108867501
   164   1 -0.00209072360650635        1.57907604436587        26.5511033233159        21.8817778669939
   165   1 0.00139881263713396        3.28321730014757      23.858198435261301      26.998913424129601
   166   1 -0.00444866928391096        1.60703777992408      22.852137755730201      29.557720008952501
   167   1 -0.00449650705495446  0.00088131418429515304      25.657332221381399      29.533221063660001
   168   1 -0.00167489641560336      1.5913503443035399      26.486267284528999      27.049859647257598
   169   1 -0.00183037772788712      3.1413091315715298      23.782272128611599      32.165159731847297
   170   1 0.00338126249325009        1.54490378947605      22.816692630308399      34.796976054224203
   171   1 0.0011299548803574    0.018666796621836498      25.589383305452099      34.726765360444297
   172   1 -0.00497252962526872        1.67949267007632      26.563740561105099      32.161599067753599
   173   1 -0.000296998375869924      3.1923859440601601      23.733036705641101        37.1094171387629
   174   1 -0.00725843779878124      1.6319067889359999      22.815772017500901      39.806342771376798
   175   1 0.00224121860621003        47.4761956638744        25.6118580799969      39.906547333282298
   176   1 -0.00675325520417341      1.5118871587221701      26.602159920594801      37.319137864764599
   177   1 0.0059295928926483      3.2164006014684099      23.727134797947102      42.281216893832998
   178   1 -0.00420040759439573      1.6975663597119399        22.7945421023676      44.915249251429103
   179   1 0.00448749190577492    0.087758832178808602      25.523206848037798      44.942611423161999
   180   1 -0.00457629202236915        1.70117037786037      26.497098513716601      42.462859009262502
   181   1 0.00043268531691606      3.2205985348045298      29.329564518915401      1.2525935453555599
   182   1 -0.00179009091749772      1.7045186693691301      28.379326574078299        3.80081476368782
   183   1 0.00946365431246246    0.074531202876379599      31.227203598907199         3.7781869177398
   184   1 0.00176845997416953         1.6295743428131      32.089617997806201        1.34026551538476
   185   1 -0.00279060144891392      3.4041916715176699        29.2826570202607      6.4335640501495703
   186   1 -0.000722042495199626        1.72192714505531        28.3396927311423      9.0005419892797107
   187   1 0.00114628757306969      0.0411645436145502        31.0986546492678      8.9153784888853291
   188   1 -0.00455636592341544        1.71465909238783      31.975383997084698      6.2960325563811201
   189   1 0.00227794999512118      3.3244918005151698      29.316263522338001      11.555275094327699
   190   1 0.00362013338567287      1.7049970382408699      28.354342923226699        14.1621251887318
   191   1 -0.0019350707824294     0.11402840733776599      31.099759846057001      14.116541411999499
   192   1 0.00226682299559964        1.74070020417935        31.9402351563796        11.4683523634582
   193   1 -0.00161118775476566      3.2190662408364399      29.338069941124999         16.696467757552
   194   1 -0.000285567778178639         1.5926219586065      28.339905009887101      19.273815748775402
   195   1 0.00945326087382841       0.101344348111143      31.138223533565899      19.258985351404899
   196   1 0.000324629136018666      1.6112963191060099      32.073631899964496        16.6817069859482
   197   1 -0.00257431920084079      3.1659240148740602         29.273318637067        21.8479137699955
   198   1 -0.00313609133139776        1.59432423388619      28.311893089014902         24.497474672029
   199   1 0.00422049876713868    0.056901337242181903      31.101017397005499      24.327663276672901
   200   1 0.00182889951066992      1.5675490797957301      32.052022519177498      21.832138648195301
   201   1 0.0024721815453901      3.1972581378900302      29.255751021515898      26.999275325280099
   202   1 -0.000988466471949871      1.6411343862176999      28.431060983942999      29.607646651116301
   203   1 0.00058595131135839    0.051478001235354801      31.108810794098201      29.578305339259501
   204   1 0.00846907408368383        1.65660388354711      31.919448942162401      26.961824552488601
   205   1 0.00649177613782252      3.2383614119147102      29.374256815343799      32.133132832446798
   206   1 -0.00168059910414409        1.59604834039708      28.411871637668199      34.753637864006897
   207   1 0.00580300858308733    0.072789445878853803      31.120058361556701      34.708655490134902
   208   1 0.00519138480855193      1.5624182595812399      32.015851304181602      32.152314942754998
   209   1 0.00336320057738407      3.1874021181861001      29.234764149426098      37.328266959805099
   210   1 0.000515448529089977      1.5798603276461001      28.441198143365298      39.912737921891697
   211   1 -0.00440544666606662    0.038802356040356797      31.170557293503499      39.867806919070297
   212   1 -0.00619244878382947        1.62884111660532      31.974442027875099        37.3149717162824
   213   1 0.00611941257157041      3.2318552248429602      29.236431167736999      42.429013815128201
   214   1 -0.000596524314437173         1.5773937481047      28.296846206856799      45.024604031204497
   215   1 -0.00331583245893565      0.0375093190025911        31.1234578719517      44.948783482828702
   216   1 0.00849756016356045        1.59349980038255      32.097214713661799      42.321199394862496
   217   1 -0.00128951734475464      3.2057928509251798      34.749586468151001      1.2614357464641199
   218   1 0.00456606851391203        1.66279506640494      33.876014319491503      3.9023127432145599
   219   1 -0.000674085343385431    0.085205491277270506      36.609563928298499      3.6707241090241598
   220   1 0.00551180525201392         1.6797714896675        37.4341652724572        1.16088308799891
   221   1 1.237321703897e-05      3.2759208347994999      34.777965038808098      6.3811856910639104
   222   1 -0.0125632588997881      1.6365440913959699      33.860429045843503        8.99269981995125
   223   1 0.00892222179962885    0.022044222984062601      36.583184070918499      8.8830022408248706
   224   1 -0.00348646505466135        1.60028614756818      37.442098840960902      6.4042927486118799
   225   1 0.00245650622104019      3.2404263998787601      34.785221586709199        11.5631814239424
   226   1 0.000756251659489783        1.69113481403996      33.898812385984797        14.0781568663612
   227   1 0.00556566970850402    0.033402426397212498        36.5728519785144        14.0627695366904
   228   1 0.00374007366175041        1.59277038757619      37.483973043447101        11.4626642693928
   229   1 0.00233993822929146        3.17537221492598      34.846675934903999      16.682945915351102
   230   1 0.00542633541939187      1.6178573914247001      33.802372979301303      19.177473121362201
   231   1 0.00103373811413143      47.468102991726397      36.532676022169902      19.182365071222101
   232   1 -0.00265026825956876      1.6341503356393601      37.494626655690702      16.702546272490899
   233   1 -0.0108855466790936      3.2151490723593299      34.715552162585197      21.839254501207201
   234   1 -0.000637073267667797        1.60126561955772      33.762369429798703        24.4750497011362
   235   1 -0.00203638097567247   0.0066205333385790004      36.563551250934303      24.485638807389002
   236   1 -0.000647539292933846      1.5686065928508801      37.529293360302603      21.825671201179599
   237   1 0.00936290342072992      3.1742752540053898      34.741776834677601      27.043740765017301
   238   1 -0.0108049466195049      1.6970115266476899      33.780855240796299          29.53631015665
   239   1 0.00455258948603048      47.425691485959199      36.634012892719802      29.630726865347601
   240   1 0.000236352752697149      1.5987318558852801      37.459532061308501        27.0803969660329
   241   1 -0.00671371267923184      3.1824091775392001      34.760652332444799      32.181613264928998
   242   1 -0.00180850279028528        1.49580715298573        33.8043420498743      34.763396350482701
   243   1 -0.00676408996110457      47.473806672701102      36.623378685936501      34.775562336505701
   244   1 0.000175270232151078      1.5471186887047801      37.507622066831502      32.109234468450801
   245   1 -0.00212392023082275      3.1653715206210999      34.821922150074002        37.1951863743841
   246   1 0.00144616810023353        1.52516056903562      33.925438687103302      39.851180691996703
   247   1 -0.00409994803754554      47.392154455679901      36.558565853106899      39.836807291301398
   248   1 0.00464942667064579      1.5393597240964301      37.466417113075202      37.289076080393002
   249   1 -0.000811268423336095      3.2182368596930702      34.749662339102898      42.332775729017001
   250   1 0.00283528131355327      1.5374603033343801      33.837271848663299      44.931423436014398
   251   1 -0.00195092971836118       0.089957796499469      36.588483723014903      44.949983560825203
   252   1 0.00273403797792651      1.5144721059241999      37.506523410402004        42.3717020617731
   253   1 -0.00266147502499513        3.20935766336168        40.2139724510237      1.1575031846839301
   254   1 -0.00588591734011695      1.6150495704844501      39.302925272220001        3.73395246477918
   255   1 -0.0062300878464663     0.10110499823519201      42.096534186458101      3.7176911612611501
   256   1 0.000600169398207608      1.6230822456580301        42.9397443278691      1.1793576125793901
   257   1 0.00410913839622813      3.1918412110590602      40.260592545811598      6.3653768646214104
   258   1 0.00336824682851062      1.6180066752312301      39.175211669258303      8.9752460676819297
   259   1 -0.00206083317804844      47.447855942995098        42.0602671730624      8.8577970148021592
   260   1 0.000794426892898304        1.64069562842842      42.874032623501101      6.3812274477835498
   261   1 0.00482603354572733      3.1953112146259102      40.171259325571903      11.583530319798999
   262   1 -0.00850345682019705        1.58090206586774      39.313111491516104      14.101801515771699
   263   1 0.000305495789435065    0.061258344175240703      42.113565683700102        13.9852660516522
   264   1 0.00283216411076383        1.65633379692177        42.8208394535393      11.524798651942501
   265   1 0.00531228340120499      3.1669466046663901      40.242293726140304      16.703105543518198
   266   1 0.00608350426696443      1.5527652889780801      39.326716487214803      19.276492114932299
   267   1 0.00023028432408124    0.057757777204479298      42.024642645277403      19.192745635742298
   268   1 0.00144336374676075        1.63309455821559      42.987033918825198      16.685572384040999
   269   1 -0.0019071585737833      3.1532240664287299        40.2108381028495      21.818377163782799
   270   1 0.00158014164853859      1.5554965419867799      39.357413014523601      24.524987000367702
   271   1 0.00141348929967181      47.459415752367299      42.118453575487599        24.4194428236151
   272   1 -0.00571467938066283      1.5540975565031401      42.957239386622703      21.831774249006401
   273   1 0.00181911342745242      3.1768627053768799      40.221892842681399      26.988101167427999
   274   1 -0.0013936229983762        1.61763674775051      39.275120447729002        29.6966657058796
   275   1 -0.0055722922232897      47.423813209934501        42.1021733671055      29.520497588563799
   276   1 0.00423229084575993      1.5455077764598799      42.992814602955903      27.037883973945501
   277   1 0.00126021441058722      3.1422040376227298      40.301614827686002      32.174186383797398
   278   1 -0.0011881225385678      1.6222887696118899      39.419283376438202      34.720218225860798
   279   1 -0.00695091522141177      47.480915442212101      42.113857664320498      34.672731596960098
   280   1 0.0044135676042348         1.5349027976711      43.033608878487499      32.082960311404698
   281   1 -0.00443388584228186      3.1735374115001602      40.272892680781197      37.206554136924701
   282   1 0.000354371207642869      1.5512221464807601      39.253421085996003      39.736300167976303
   283   1 -0.00185856856106084        47.4702566103146      42.123107913053502      39.827666239886597
   284   1 0.000122808629390701        1.66214257268317      43.005299754746702      37.278685136728598
   285   1 0.00434027572838936      3.1004242106119801      40.150886358259498      42.285616231476702
   286   1 0.00472803915549525      1.6688564864911699      39.275551158041502      44.940461839141001
   287   1 -0.00213492585610239      47.469654642714403        42.0742040195857        44.9357947807258