LAMMPS (27 Jun 2024)
Reading data file ...
  orthogonal box = (0 0 0) to (47.496082 49.359376 46.322428)
  2 by 2 by 1 MPI processor grid
  reading atoms ...
  4861 atoms
  read_data CPU = 0.010 seconds
Reading comb potential file ffield.comb with DATE: 2011-02-22
Pair COMB:
  generating Coulomb integral lookup table ...
  element[1] = Hf, z = 0.679131
  element[2] = O , z = 2.24307
  will apply over-coordination correction ...
4860 atoms in group type1
1 atoms in group type2

CITE-CITE-CITE-CITE-CITE-CITE-CITE-CITE-CITE-CITE-CITE-CITE-CITE

Your simulation uses code contributions which should be cited:
- Type Label Framework: https://doi.org/10.1021/acs.jpcb.3c08419
The log file lists these citations in BibTeX format.

CITE-CITE-CITE-CITE-CITE-CITE-CITE-CITE-CITE-CITE-CITE-CITE-CITE

Neighbor list info ...
  update: every = 1 steps, delay = 0 steps, check = no
  max neighbors/atom: 2000, page size: 100000
  master list distance cutoff = 14
  ghost atom cutoff = 14
  binsize = 7, bins = 7 8 7
  1 neighbor lists, perpetual/occasional/extra = 1 0 0
  (1) pair comb, perpetual
      attributes: full, newton on
      pair build: full/bin/atomonly
      stencil: full/bin/3d
      bin: standard
Setting up sd style minimization ...
  Unit style    : metal
  Current step  : 0
Per MPI rank memory allocation (min/avg/max) = 10.02 | 10.02 | 10.02 Mbytes
   Step          Temp          TotEng         PotEng         E_vdwl         E_coul         Press          Volume          c_q1           c_q2     
         0   0             -33835.639     -33835.639     -33828.041     -7.5978146      2910.348       108597.23      0.00031569882 -1.5342963    
         1   0             -33917.402     -33917.402     -33909.824     -7.5785768      486.42256      108597.23      0.00031569882 -1.5342963    
         2   0             -33941.019     -33941.019     -33933.46      -7.5596865     -34.656878      108597.23      0.00031569882 -1.5342963    
         3   0             -33943.659     -33943.659     -33936.097     -7.5623418     -142.01745      108597.23      0.00031569882 -1.5342963    
         4   0             -33945.386     -33945.386     -33937.823     -7.5625131     -140.23862      108597.23      0.00031569882 -1.5342963    
         5   0             -33946.188     -33946.188     -33938.626     -7.5620702     -232.80563      108597.23      0.00031569882 -1.5342963    
         6   0             -33946.665     -33946.665     -33939.104     -7.5616902     -138.57235      108597.23      0.00031569882 -1.5342963    
         7   0             -33946.883     -33946.883     -33939.322     -7.5614342     -203.88833      108597.23      0.00031569882 -1.5342963    
         8   0             -33947.637     -33947.637     -33940.077     -7.5605148     -103.35777      108597.23      0.00031569882 -1.5342963    
         9   0             -33947.864     -33947.864     -33940.304     -7.5602932     -225.1124       108597.23      0.00031569882 -1.5342963    
        10   0             -33947.9       -33947.9       -33940.339     -7.5604191     -206.02221      108597.23      0.00031569882 -1.5342963    
        11   0             -33947.995     -33947.995     -33940.434     -7.5606034     -241.74763      108597.23      0.00031569882 -1.5342963    
        12   0             -33948.033     -33948.033     -33940.473     -7.5606974     -199.35793      108597.23      0.00031569882 -1.5342963    
        13   0             -33948.057     -33948.057     -33940.496     -7.5606154     -222.96948      108597.23      0.00031569882 -1.5342963    
        14   0             -33948.085     -33948.085     -33940.524     -7.5606309     -202.68818      108597.23      0.00031569882 -1.5342963    
        15   0             -33948.101     -33948.101     -33940.541     -7.5605712     -222.03869      108597.23      0.00031569882 -1.5342963    
        16   0             -33948.121     -33948.121     -33940.56      -7.5605911     -206.07165      108597.23      0.00031569882 -1.5342963    
        17   0             -33948.135     -33948.135     -33940.574     -7.5605448     -221.79423      108597.23      0.00031569882 -1.5342963    
        18   0             -33948.15      -33948.15      -33940.589     -7.5605596     -208.66314      108597.23      0.00031569882 -1.5342963    
        19   0             -33948.162     -33948.162     -33940.601     -7.5605232     -221.60391      108597.23      0.00031569882 -1.5342963    
        20   0             -33948.174     -33948.174     -33940.614     -7.5605329     -210.6648       108597.23      0.00031569882 -1.5342963    
        21   0             -33948.184     -33948.184     -33940.624     -7.5605042     -221.48831      108597.23      0.00031569882 -1.5342963    
        22   0             -33948.195     -33948.195     -33940.634     -7.5605098     -212.18378      108597.23      0.00031569882 -1.5342963    
        23   0             -33948.204     -33948.204     -33940.643     -7.560487      -221.4426       108597.23      0.00031569882 -1.5342963    
        24   0             -33948.212     -33948.212     -33940.652     -7.5604895     -213.31989      108597.23      0.00031569882 -1.5342963    
        25   0             -33948.22      -33948.22      -33940.66      -7.5604712     -221.45805      108597.23      0.00031569882 -1.5342963    
        26   0             -33948.227     -33948.227     -33940.667     -7.5604717     -214.15791      108597.23      0.00031569882 -1.5342963    
        27   0             -33948.235     -33948.235     -33940.674     -7.5604567     -221.52075      108597.23      0.00031569882 -1.5342963    
        28   0             -33948.24      -33948.24      -33940.68      -7.5604558     -214.76826      108597.23      0.00031569882 -1.5342963    
        29   0             -33948.247     -33948.247     -33940.687     -7.5604433     -221.61619      108597.23      0.00031569882 -1.5342963    
        30   0             -33948.252     -33948.252     -33940.692     -7.5604425     -218.69305      108597.23      0.00031569882 -1.5342963    
        31   0             -33948.262     -33948.262     -33940.701     -7.5604142     -224.09946      108597.23      0.00031569882 -1.5342963    
        32   0             -33948.274     -33948.274     -33940.713     -7.5604133     -221.18664      108597.23      0.00031569882 -1.5342963    
        33   0             -33948.29      -33948.29      -33940.729     -7.5604218     -201.18446      108597.23      0.00031569882 -1.5342963    
        34   0             -33948.304     -33948.304     -33940.744     -7.5603752     -221.60217      108597.23      0.00031569882 -1.5342963    
        35   0             -33948.312     -33948.312     -33940.751     -7.5603798     -212.86589      108597.23      0.00031569882 -1.5342963    
        36   0             -33948.315     -33948.315     -33940.755     -7.5603636     -220.61988      108597.23      0.00031569882 -1.5342963    
        37   0             -33948.343     -33948.343     -33940.783     -7.5603117     -225.94112      108597.23      0.00031569882 -1.5342963    
        38   0             -33948.348     -33948.348     -33940.787     -7.5603236     -221.7255       108597.23      0.00031569882 -1.5342963    
        39   0             -33948.348     -33948.348     -33940.788     -7.5603238     -221.05367      108597.23      0.00031569882 -1.5342963    
        40   0             -33948.35      -33948.35      -33940.79      -7.5603175     -221.50182      108597.23      0.00031569882 -1.5342963    
        41   0             -33948.354     -33948.354     -33940.794     -7.5603203     -222.038        108597.23      0.00031569882 -1.5342963    
        42   0             -33948.356     -33948.356     -33940.795     -7.5603197     -221.17239      108597.23      0.00031569882 -1.5342963    
        43   0             -33948.357     -33948.357     -33940.796     -7.5603154     -221.44518      108597.23      0.00031569882 -1.5342963    
        44   0             -33948.37      -33948.37      -33940.81      -7.5602984     -224.09253      108597.23      0.00031569882 -1.5342963    
        45   0             -33948.372     -33948.372     -33940.811     -7.5603094     -220.15934      108597.23      0.00031569882 -1.5342963    
        46   0             -33948.372     -33948.372     -33940.812     -7.5602993     -223.42928      108597.23      0.00031569882 -1.5342963    
        47   0             -33948.373     -33948.373     -33940.813     -7.560308      -220.46249      108597.23      0.00031569882 -1.5342963    
        48   0             -33948.374     -33948.374     -33940.814     -7.5602997     -223.13245      108597.23      0.00031569882 -1.5342963    
        49   0             -33948.374     -33948.374     -33940.814     -7.5603068     -220.75808      108597.23      0.00031569882 -1.5342963    
        50   0             -33948.375     -33948.375     -33940.815     -7.5602932     -224.96877      108597.23      0.00031569882 -1.5342963    
        51   0             -33948.376     -33948.376     -33940.816     -7.560302      -222.20202      108597.23      0.00031569882 -1.5342963    
        52   0             -33948.38      -33948.38      -33940.82      -7.5603258     -212.9793       108597.23      0.00031569882 -1.5342963    
        53   0             -33948.385     -33948.385     -33940.824     -7.5603075     -219.47889      108597.23      0.00031569882 -1.5342963    
        54   0             -33948.385     -33948.385     -33940.825     -7.5603002     -221.97787      108597.23      0.00031569882 -1.5342963    
        55   0             -33948.391     -33948.391     -33940.831     -7.5602927     -224.65505      108597.23      0.00031569882 -1.5342963    
        56   0             -33948.391     -33948.391     -33940.831     -7.5602985     -222.38981      108597.23      0.00031569882 -1.5342963    
        57   0             -33948.396     -33948.396     -33940.835     -7.5603157     -216.93739      108597.23      0.00031569882 -1.5342963    
        58   0             -33948.397     -33948.397     -33940.836     -7.5603055     -220.4973       108597.23      0.00031569882 -1.5342963    
        59   0             -33948.397     -33948.397     -33940.836     -7.5603055     -220.4973       108597.23      0.00031569882 -1.5342963    
Loop time of 9.74188 on 4 procs for 59 steps with 4861 atoms

99.2% CPU use with 4 MPI tasks x no OpenMP threads

Minimization stats:
  Stopping criterion = energy tolerance
  Energy initial, next-to-last, final = 
     -33835.6392816262  -33948.3967319081  -33948.3967319081
  Force two-norm initial, final = 46.657864 0.12757271
  Force max component initial, final = 1.5985677 0.046699701
  Final line search alpha, max atom move = 4.7683716e-07 2.2268153e-08
  Iterations, force evaluations = 59 233

MPI task timing breakdown:
Section |  min time  |  avg time  |  max time  |%varavg| %total
---------------------------------------------------------------
Pair    | 6.5394     | 6.6062     | 6.6731     |   2.5 | 67.81
Neigh   | 2.8846     | 2.9147     | 2.9524     |   1.6 | 29.92
Comm    | 0.1141     | 0.21301    | 0.30421    |  19.4 |  2.19
Output  | 0.0013793  | 0.0015498  | 0.0020472  |   0.7 |  0.02
Modify  | 0          | 0          | 0          |   0.0 |  0.00
Other   |            | 0.006365   |            |       |  0.07

Nlocal:        1215.25 ave        1217 max        1213 min
Histogram: 1 0 1 0 0 0 0 0 0 2
Nghost:        7298.25 ave        7301 max        7296 min
Histogram: 2 0 0 0 0 0 0 0 1 1
Neighs:              0 ave           0 max           0 min
Histogram: 4 0 0 0 0 0 0 0 0 0
FullNghs:       628308 ave      629533 max      627178 min
Histogram: 1 1 0 0 0 0 0 1 0 1

Total # of neighbors = 2513234
Ave neighs/atom = 517.01995
Neighbor list builds = 234
Dangerous builds not checked
WARNING: No fixes with time integration, atoms won't move (src/verlet.cpp:60)
Setting up Verlet run ...
  Unit style    : metal
  Current step  : 59
  Time step     : 0.001
Per MPI rank memory allocation (min/avg/max) = 9.159 | 9.159 | 9.159 Mbytes
   Step          Temp          TotEng         PotEng         E_vdwl         E_coul         Press          Volume          c_q1           c_q2     
        59   0             -33948.397     -33948.397     -33940.836     -7.5603055     -220.4973       108597.23      0.00031569882 -1.5342963    
Loop time of 1.16675e-06 on 4 procs for 0 steps with 4861 atoms

128.6% CPU use with 4 MPI tasks x no OpenMP threads

MPI task timing breakdown:
Section |  min time  |  avg time  |  max time  |%varavg| %total
---------------------------------------------------------------
Pair    | 0          | 0          | 0          |   0.0 |  0.00
Neigh   | 0          | 0          | 0          |   0.0 |  0.00
Comm    | 0          | 0          | 0          |   0.0 |  0.00
Output  | 0          | 0          | 0          |   0.0 |  0.00
Modify  | 0          | 0          | 0          |   0.0 |  0.00
Other   |            | 1.167e-06  |            |       |100.00

Nlocal:        1215.25 ave        1217 max        1213 min
Histogram: 1 0 1 0 0 0 0 0 0 2
Nghost:        7298.25 ave        7301 max        7296 min
Histogram: 2 0 0 0 0 0 0 0 1 1
Neighs:              0 ave           0 max           0 min
Histogram: 4 0 0 0 0 0 0 0 0 0
FullNghs:       628308 ave      629533 max      627178 min
Histogram: 1 1 0 0 0 0 0 1 0 1

Total # of neighbors = 2513234
Ave neighs/atom = 517.01995
Neighbor list builds = 0
Dangerous builds not checked
Total wall time: 0:00:09
