LAMMPS (27 Jun 2024)
Reading data file ...
  orthogonal box = (0 0 0) to (47.496082 49.359376 46.322428)
  2 by 2 by 1 MPI processor grid
  reading atoms ...
  4861 atoms
  read_data CPU = 0.009 seconds
Reading comb potential file ffield.comb with DATE: 2011-02-22
Pair COMB:
  generating Coulomb integral lookup table ...
  element[1] = Hf, z = 0.679131
  element[2] = O , z = 2.24307
  will apply over-coordination correction ...
4860 atoms in group type1
1 atoms in group type2

CITE-CITE-CITE-CITE-CITE-CITE-CITE-CITE-CITE-CITE-CITE-CITE-CITE

Your simulation uses code contributions which should be cited:
- Type Label Framework: https://doi.org/10.1021/acs.jpcb.3c08419
The log file lists these citations in BibTeX format.

CITE-CITE-CITE-CITE-CITE-CITE-CITE-CITE-CITE-CITE-CITE-CITE-CITE

Neighbor list info ...
  update: every = 1 steps, delay = 0 steps, check = no
  max neighbors/atom: 2000, page size: 100000
  master list distance cutoff = 14
  ghost atom cutoff = 14
  binsize = 7, bins = 7 8 7
  1 neighbor lists, perpetual/occasional/extra = 1 0 0
  (1) pair comb, perpetual
      attributes: full, newton on
      pair build: full/bin/atomonly
      stencil: full/bin/3d
      bin: standard
Setting up sd style minimization ...
  Unit style    : metal
  Current step  : 0
Per MPI rank memory allocation (min/avg/max) = 10.02 | 10.02 | 10.02 Mbytes
   Step          Temp          TotEng         PotEng         E_vdwl         E_coul         Press          Volume          c_q1           c_q2     
         0   0             -33835.639     -33835.639     -33828.041     -7.5978146      2910.348       108597.23      0.00031569882 -1.5342963    
         1   0             -33917.402     -33917.402     -33909.824     -7.5785768      486.42256      108597.23      0.00031569882 -1.5342963    
         2   0             -33941.019     -33941.019     -33933.46      -7.5596865     -34.656878      108597.23      0.00031569882 -1.5342963    
         3   0             -33943.659     -33943.659     -33936.097     -7.5623418     -142.01745      108597.23      0.00031569882 -1.5342963    
         4   0             -33945.386     -33945.386     -33937.823     -7.5625131     -140.23862      108597.23      0.00031569882 -1.5342963    
         5   0             -33946.188     -33946.188     -33938.626     -7.5620702     -232.80563      108597.23      0.00031569882 -1.5342963    
         6   0             -33946.665     -33946.665     -33939.104     -7.5616902     -138.57235      108597.23      0.00031569882 -1.5342963    
         7   0             -33946.883     -33946.883     -33939.322     -7.5614342     -203.88833      108597.23      0.00031569882 -1.5342963    
         8   0             -33947.536     -33947.536     -33939.975     -7.5609253     -149.63465      108597.23      0.00031569882 -1.5342963    
         9   0             -33947.628     -33947.628     -33940.067     -7.5608016     -204.11431      108597.23      0.00031569882 -1.5342963    
        10   0             -33947.941     -33947.941     -33940.38      -7.5606011     -235.63431      108597.23      0.00031569882 -1.5342963    
        11   0             -33948.031     -33948.031     -33940.47      -7.5606449     -227.89553      108597.23      0.00031569882 -1.5342963    
        12   0             -33948.073     -33948.073     -33940.513     -7.5606488     -193.99419      108597.23      0.00031569882 -1.5342963    
        13   0             -33948.101     -33948.101     -33940.541     -7.5605772     -221.73061      108597.23      0.00031569882 -1.5342963    
        14   0             -33948.116     -33948.116     -33940.555     -7.5605755     -211.9161       108597.23      0.00031569882 -1.5342963    
        15   0             -33948.129     -33948.129     -33940.569     -7.5605491     -221.59192      108597.23      0.00031569882 -1.5342963    
        16   0             -33948.142     -33948.142     -33940.581     -7.5605503     -213.57653      108597.23      0.00031569882 -1.5342963    
        17   0             -33948.154     -33948.154     -33940.593     -7.5605308     -221.18366      108597.23      0.00031569882 -1.5342963    
        18   0             -33948.165     -33948.165     -33940.604     -7.5605287     -214.73855      108597.23      0.00031569882 -1.5342963    
        19   0             -33948.175     -33948.175     -33940.614     -7.5605138     -220.95392      108597.23      0.00031569882 -1.5342963    
        20   0             -33948.184     -33948.184     -33940.624     -7.5605095     -215.63216      108597.23      0.00031569882 -1.5342963    
        21   0             -33948.193     -33948.193     -33940.633     -7.560498      -220.84993      108597.23      0.00031569882 -1.5342963    
        22   0             -33948.201     -33948.201     -33940.641     -7.5604923     -216.34033      108597.23      0.00031569882 -1.5342963    
        23   0             -33948.209     -33948.209     -33940.649     -7.5604834     -220.82458      108597.23      0.00031569882 -1.5342963    
        24   0             -33948.216     -33948.216     -33940.656     -7.5604767     -216.91332      108597.23      0.00031569882 -1.5342963    
        25   0             -33948.223     -33948.223     -33940.663     -7.5604697     -220.84787      108597.23      0.00031569882 -1.5342963    
        26   0             -33948.23      -33948.23      -33940.669     -7.5604624     -217.38521      108597.23      0.00031569882 -1.5342963    
        27   0             -33948.236     -33948.236     -33940.675     -7.560457      -220.90091      108597.23      0.00031569882 -1.5342963    
        28   0             -33948.242     -33948.242     -33940.681     -7.5604493     -217.78002      108597.23      0.00031569882 -1.5342963    
        29   0             -33948.247     -33948.247     -33940.687     -7.5604452     -220.97162      108597.23      0.00031569882 -1.5342963    
        30   0             -33948.252     -33948.252     -33940.692     -7.5604372     -218.11511      108597.23      0.00031569882 -1.5342963    
        31   0             -33948.257     -33948.257     -33940.697     -7.5604342     -221.05215      108597.23      0.00031569882 -1.5342963    
        32   0             -33948.262     -33948.262     -33940.701     -7.5604261     -218.40324      108597.23      0.00031569882 -1.5342963    
        33   0             -33948.266     -33948.266     -33940.706     -7.560424      -221.13729      108597.23      0.00031569882 -1.5342963    
        34   0             -33948.27      -33948.27      -33940.71      -7.5604159     -218.65398      108597.23      0.00031569882 -1.5342963    
        35   0             -33948.274     -33948.274     -33940.714     -7.5604152     -220.14341      108597.23      0.00031569882 -1.5342963    
        36   0             -33948.324     -33948.324     -33940.764     -7.5603536     -214.74644      108597.23      0.00031569882 -1.5342963    
        37   0             -33948.327     -33948.327     -33940.767     -7.5603409     -220.86411      108597.23      0.00031569882 -1.5342963    
        38   0             -33948.342     -33948.342     -33940.781     -7.5603031     -220.37432      108597.23      0.00031569882 -1.5342963    
        39   0             -33948.35      -33948.35      -33940.789     -7.5603088     -223.13337      108597.23      0.00031569882 -1.5342963    
        40   0             -33948.358     -33948.358     -33940.797     -7.5603324     -215.63257      108597.23      0.00031569882 -1.5342963    
        41   0             -33948.359     -33948.359     -33940.799     -7.5603246     -217.98225      108597.23      0.00031569882 -1.5342963    
        42   0             -33948.359     -33948.359     -33940.799     -7.5603223     -218.61813      108597.23      0.00031569882 -1.5342963    
        43   0             -33948.359     -33948.359     -33940.799     -7.5603218     -218.74363      108597.23      0.00031569882 -1.5342963    
        44   0             -33948.359     -33948.359     -33940.799     -7.5603216     -218.80317      108597.23      0.00031569882 -1.5342963    
        45   0             -33948.359     -33948.359     -33940.799     -7.5603215     -218.81043      108597.23      0.00031569882 -1.5342963    
        46   0             -33948.359     -33948.359     -33940.799     -7.5603215     -218.81223      108597.23      0.00031569882 -1.5342963    
        47   0             -33948.359     -33948.359     -33940.799     -7.5603215     -218.81246      108597.23      0.00031569882 -1.5342963    
        48   0             -33948.359     -33948.359     -33940.799     -7.5603215     -218.81252      108597.23      0.00031569882 -1.5342963    
Loop time of 12.2131 on 4 procs for 48 steps with 4861 atoms

97.9% CPU use with 4 MPI tasks x no OpenMP threads

Minimization stats:
  Stopping criterion = energy tolerance
  Energy initial, next-to-last, final = 
     -33835.6392816262  -33948.3593667431  -33948.3593667659
  Force two-norm initial, final = 46.657864 0.24427015
  Force max component initial, final = 1.5985677 0.060359287
  Final line search alpha, max atom move = 9.5367432e-07 5.7563102e-08
  Iterations, force evaluations = 48 283

MPI task timing breakdown:
Section |  min time  |  avg time  |  max time  |%varavg| %total
---------------------------------------------------------------
Pair    | 8.1571     | 8.2542     | 8.3519     |   3.1 | 67.58
Neigh   | 3.6022     | 3.6491     | 3.7101     |   2.4 | 29.88
Comm    | 0.14067    | 0.29908    | 0.43722    |  24.7 |  2.45
Output  | 0.0014365  | 0.0017746  | 0.0027747  |   1.4 |  0.01
Modify  | 0          | 0          | 0          |   0.0 |  0.00
Other   |            | 0.008877   |            |       |  0.07

Nlocal:        1215.25 ave        1231 max        1199 min
Histogram: 1 0 0 1 0 0 1 0 0 1
Nghost:        7298.25 ave        7315 max        7282 min
Histogram: 1 0 0 1 0 0 1 0 0 1
Neighs:              0 ave           0 max           0 min
Histogram: 4 0 0 0 0 0 0 0 0 0
FullNghs:       628884 ave      637080 max      620534 min
Histogram: 1 0 0 1 0 0 1 0 0 1

Total # of neighbors = 2515534
Ave neighs/atom = 517.49311
Neighbor list builds = 284
Dangerous builds not checked
WARNING: No fixes with time integration, atoms won't move (src/verlet.cpp:60)
Setting up Verlet run ...
  Unit style    : metal
  Current step  : 48
  Time step     : 0.001
Per MPI rank memory allocation (min/avg/max) = 9.159 | 9.16 | 9.162 Mbytes
   Step          Temp          TotEng         PotEng         E_vdwl         E_coul         Press          Volume          c_q1           c_q2     
        48   0             -33948.359     -33948.359     -33940.799     -7.5603215     -218.81252      108597.23      0.00031569882 -1.5342963    
Loop time of 1.10425e-06 on 4 procs for 0 steps with 4861 atoms

135.8% CPU use with 4 MPI tasks x no OpenMP threads

MPI task timing breakdown:
Section |  min time  |  avg time  |  max time  |%varavg| %total
---------------------------------------------------------------
Pair    | 0          | 0          | 0          |   0.0 |  0.00
Neigh   | 0          | 0          | 0          |   0.0 |  0.00
Comm    | 0          | 0          | 0          |   0.0 |  0.00
Output  | 0          | 0          | 0          |   0.0 |  0.00
Modify  | 0          | 0          | 0          |   0.0 |  0.00
Other   |            | 1.104e-06  |            |       |100.00

Nlocal:        1215.25 ave        1231 max        1199 min
Histogram: 1 0 0 1 0 0 1 0 0 1
Nghost:        7298.25 ave        7315 max        7282 min
Histogram: 1 0 0 1 0 0 1 0 0 1
Neighs:              0 ave           0 max           0 min
Histogram: 4 0 0 0 0 0 0 0 0 0
FullNghs:       628884 ave      637080 max      620534 min
Histogram: 1 0 0 1 0 0 1 0 0 1

Total # of neighbors = 2515534
Ave neighs/atom = 517.49311
Neighbor list builds = 0
Dangerous builds not checked
Total wall time: 0:00:12
