LAMMPS (27 Jun 2024)
Reading data file ...
  orthogonal box = (0 0 0) to (47.496082 49.359376 46.322428)
  2 by 2 by 1 MPI processor grid
  reading atoms ...
  4861 atoms
  read_data CPU = 0.009 seconds
Reading comb potential file ffield.comb with DATE: 2011-02-22
Pair COMB:
  generating Coulomb integral lookup table ...
  element[1] = Hf, z = 0.679131
  element[2] = O , z = 2.24307
  will apply over-coordination correction ...
4860 atoms in group type1
1 atoms in group type2

CITE-CITE-CITE-CITE-CITE-CITE-CITE-CITE-CITE-CITE-CITE-CITE-CITE

Your simulation uses code contributions which should be cited:
- Type Label Framework: https://doi.org/10.1021/acs.jpcb.3c08419
The log file lists these citations in BibTeX format.

CITE-CITE-CITE-CITE-CITE-CITE-CITE-CITE-CITE-CITE-CITE-CITE-CITE

Neighbor list info ...
  update: every = 1 steps, delay = 0 steps, check = no
  max neighbors/atom: 2000, page size: 100000
  master list distance cutoff = 14
  ghost atom cutoff = 14
  binsize = 7, bins = 7 8 7
  1 neighbor lists, perpetual/occasional/extra = 1 0 0
  (1) pair comb, perpetual
      attributes: full, newton on
      pair build: full/bin/atomonly
      stencil: full/bin/3d
      bin: standard
Setting up fire style minimization ...
  Unit style    : metal
  Current step  : 0
  Parameters for fire:
    dmax  delaystep dtgrow dtshrink alpha0 alphashrink tmax tmin   integrator   halfstepback   abcfire  
     0.1     20      1.1     0.5     0.25     0.99      10  0.02 eulerimplicit      yes          no     
Per MPI rank memory allocation (min/avg/max) = 8.894 | 8.894 | 8.894 Mbytes
   Step          Temp          TotEng         PotEng         E_vdwl         E_coul         Press          Volume          c_q1           c_q2     
         0   0             -33835.639     -33835.639     -33828.041     -7.5978146      2910.348       108597.23      0.00031569882 -1.5342963    
         1   0.093663188   -33835.689     -33835.748     -33828.15      -7.597802       2907.5767      108597.23      0.00031569882 -1.5342963    
         2   0.28669864    -33835.757     -33835.938     -33828.34      -7.59778        2902.9137      108597.23      0.00031569882 -1.5342963    
         3   0.58461378    -33835.841     -33836.208     -33828.61      -7.5977483      2896.4046      108597.23      0.00031569882 -1.5342963    
         4   0.98687298    -33835.939     -33836.559     -33828.961     -7.5977071      2888.0628      108597.23      0.00031569882 -1.5342963    
         5   1.492753      -33836.052     -33836.99      -33829.392     -7.5976563      2877.9055      108597.23      0.00031569882 -1.5342963    
         6   2.1013448     -33836.179     -33837.499     -33829.902     -7.5975958      2865.9535      108597.23      0.00031569882 -1.5342963    
         7   2.8115556     -33836.321     -33838.087     -33830.49      -7.5975256      2852.2317      108597.23      0.00031569882 -1.5342963    
         8   3.6221117     -33836.476     -33838.752     -33831.154     -7.5974456      2836.7686      108597.23      0.00031569882 -1.5342963    
         9   4.5315614     -33836.645     -33839.492     -33831.894     -7.5973557      2819.5963      108597.23      0.00031569882 -1.5342963    
        10   5.5382783     -33836.827     -33840.306     -33832.709     -7.5972558      2800.7506      108597.23      0.00031569882 -1.5342963    
        11   6.6404654     -33837.022     -33841.194     -33833.597     -7.5971459      2780.2706      108597.23      0.00031569882 -1.5342963    
        12   7.8361588     -33837.23      -33842.152     -33834.555     -7.5970259      2758.199       108597.23      0.00031569882 -1.5342963    
        13   9.1232333     -33837.449     -33843.181     -33835.584     -7.5968957      2734.5816      108597.23      0.00031569882 -1.5342963    
        14   10.499407     -33837.681     -33844.276     -33836.68      -7.5967551      2709.4673      108597.23      0.00031569882 -1.5342963    
        15   11.962245     -33837.923     -33845.438     -33837.841     -7.5966041      2682.9081      108597.23      0.00031569882 -1.5342963    
        16   13.509169     -33838.176     -33846.663     -33839.066     -7.5964425      2654.9587      108597.23      0.00031569882 -1.5342963    
        17   15.13746      -33838.44      -33847.949     -33840.353     -7.5962703      2625.6767      108597.23      0.00031569882 -1.5342963    
        18   16.844265     -33838.713     -33849.295     -33841.699     -7.5960872      2595.1221      108597.23      0.00031569882 -1.5342963    
        19   18.626608     -33838.996     -33850.697     -33843.101     -7.5958932      2563.3571      108597.23      0.00031569882 -1.5342963    
        20   20.481389     -33839.287     -33852.153     -33844.558     -7.5956882      2530.4464      108597.23      0.00031569882 -1.5342963    
        21   22.4054       -33839.586     -33853.661     -33846.066     -7.595472       2496.4564      108597.23      0.00031569882 -1.5342963    
        22   24.599039     -33839.927     -33855.38      -33847.785     -7.5952205      2457.7996      108597.23      0.00031569882 -1.5342963    
        23   27.108988     -33840.31      -33857.34      -33849.745     -7.5949273      2413.8986      108597.23      0.00031569882 -1.5342963    
        24   29.980409     -33840.738     -33859.572     -33851.978     -7.5945843      2364.0846      108597.23      0.00031569882 -1.5342963    
        25   33.263195     -33841.218     -33862.114     -33854.52      -7.5941819      2307.6517      108597.23      0.00031569882 -1.5342963    
        26   37.011482     -33841.752     -33865.003     -33857.409     -7.5937083      2243.8914      108597.23      0.00031569882 -1.5342963    
        27   41.282545     -33842.344     -33868.278     -33860.684     -7.5931491      2172.0725      108597.23      0.00031569882 -1.5342963    
        28   46.134799     -33842.995     -33871.977     -33864.385     -7.5924869      2091.5575      108597.23      0.00031569882 -1.5342963    
        29   51.624498     -33843.706     -33876.137     -33868.545     -7.5917003      2001.8622      108597.23      0.00031569882 -1.5342963    
        30   57.800622     -33844.473     -33880.783     -33873.193     -7.5907634      1902.7532      108597.23      0.00031569882 -1.5342963    
        31   64.697308     -33845.288     -33885.931     -33878.342     -7.5896451      1794.4206      108597.23      0.00031569882 -1.5342963    
        32   72.32299      -33846.14      -33891.573     -33883.985     -7.588308       1677.6291      108597.23      0.00031569882 -1.5342963    
        33   80.645234     -33847.008     -33897.67      -33890.083     -7.586708       1553.95        108597.23      0.00031569882 -1.5342963    
        34   89.569908     -33847.873     -33904.141     -33896.556     -7.5847945      1426.0878      108597.23      0.00031569882 -1.5342963    
        35   98.912453     -33848.711     -33910.849     -33903.266     -7.5825111      1297.7396      108597.23      0.00031569882 -1.5342963    
        36   108.35696     -33849.521     -33917.591     -33910.011     -7.5798004      1173.8656      108597.23      0.00031569882 -1.5342963    
        37   117.39135     -33850.353     -33924.099     -33916.522     -7.5766133      1059.9127      108597.23      0.00031569882 -1.5342963    
        38   125.18805     -33851.406     -33930.05      -33922.477     -7.5729326      960.203        108597.23      0.00031569882 -1.5342963    
        39   130.35972     -33853.225     -33935.118     -33927.549     -7.5688234      874.31043      108597.23      0.00031569882 -1.5342963    
        40   130.54471     -33857.059     -33939.068     -33931.503     -7.5645215      790.66042      108597.23      0.00031569882 -1.5342963    
        41   122.50706     -33864.905     -33941.865     -33934.304     -7.5605231      684.21865      108597.23      0.00031569882 -1.5342963    
        42   105.00492     -33877.706     -33943.67      -33936.113     -7.5574922      537.48932      108597.23      0.00031569882 -1.5342963    
        43   81.720269     -33893.346     -33944.683     -33937.128     -7.5559159      368.28857      108597.23      0.00031569882 -1.5342963    
        44   57.874564     -33908.721     -33945.078     -33937.522     -7.5558505      209.89793      108597.23      0.00031569882 -1.5342963    
        45   0.027951854   -33945.116     -33945.134     -33937.578     -7.5559271     -148.70644      108597.23      0.00031569882 -1.5342963    
        46   0.085016318   -33945.134     -33945.188     -33937.632     -7.5560383     -149.66507      108597.23      0.00031569882 -1.5342963    
        47   0.17158063    -33945.155     -33945.263     -33937.707     -7.5562053     -150.9593       108597.23      0.00031569882 -1.5342963    
        48   0.28556038    -33945.179     -33945.358     -33937.802     -7.5564171     -152.55691      108597.23      0.00031569882 -1.5342963    
        49   0.42420082    -33945.204     -33945.47      -33937.913     -7.5566639     -154.41936      108597.23      0.00031569882 -1.5342963    
        50   0.58416597    -33945.23      -33945.597     -33938.04      -7.5569374     -156.50324      108597.23      0.00031569882 -1.5342963    
        51   0.76164206    -33945.257     -33945.735     -33938.178     -7.5572305     -158.76194      108597.23      0.00031569882 -1.5342963    
        52   0.95245007    -33945.284     -33945.882     -33938.325     -7.5575378     -161.14728      108597.23      0.00031569882 -1.5342963    
        53   1.152162      -33945.311     -33946.035     -33938.477     -7.5578548     -163.6111       108597.23      0.00031569882 -1.5342963    
        54   1.3562151     -33945.337     -33946.189     -33938.631     -7.5581779     -166.10686      108597.23      0.00031569882 -1.5342963    
        55   1.5600165     -33945.363     -33946.343     -33938.784     -7.5585038     -168.59095      108597.23      0.00031569882 -1.5342963    
        56   1.7590281     -33945.387     -33946.492     -33938.934     -7.5588294     -171.02407      108597.23      0.00031569882 -1.5342963    
        57   1.9488182     -33945.412     -33946.636     -33939.077     -7.5591516     -173.37242      108597.23      0.00031569882 -1.5342963    
        58   2.1250668     -33945.437     -33946.772     -33939.212     -7.5594666     -175.60911      108597.23      0.00031569882 -1.5342963    
        59   2.2835142     -33945.463     -33946.897     -33939.338     -7.5597704     -177.7159       108597.23      0.00031569882 -1.5342963    
        60   2.4198791     -33945.493     -33947.013     -33939.453     -7.5600575     -179.68534      108597.23      0.00031569882 -1.5342963    
        61   2.5298592     -33945.529     -33947.118     -33939.558     -7.5603219     -181.52282      108597.23      0.00031569882 -1.5342963    
        62   2.609506      -33945.574     -33947.213     -33939.653     -7.5605563     -183.24703      108597.23      0.00031569882 -1.5342963    
        63   2.6564082     -33945.631     -33947.3       -33939.739     -7.5607536     -184.88551      108597.23      0.00031569882 -1.5342963    
        64   2.671768      -33945.701     -33947.379     -33939.818     -7.5609074     -186.46303      108597.23      0.00031569882 -1.5342963    
        65   2.66219       -33945.78      -33947.453     -33939.892     -7.5610143     -187.98753      108597.23      0.00031569882 -1.5342963    
        66   2.6478287     -33945.865     -33947.529     -33939.967     -7.5610811     -189.51639      108597.23      0.00031569882 -1.5342963    
        67   2.6353466     -33945.952     -33947.607     -33940.046     -7.5611031     -191.04222      108597.23      0.00031569882 -1.5342963    
        68   2.6305881     -33946.035     -33947.688     -33940.127     -7.5610788     -192.5638       108597.23      0.00031569882 -1.5342963    
        69   2.6377972     -33946.113     -33947.77      -33940.209     -7.5610115     -194.07039      108597.23      0.00031569882 -1.5342963    
        70   2.6573413     -33946.183     -33947.853     -33940.292     -7.5609104     -195.53367      108597.23      0.00031569882 -1.5342963    
        71   2.6839407     -33946.247     -33947.933     -33940.372     -7.5607914     -196.90967      108597.23      0.00031569882 -1.5342963    
        72   2.7050226     -33946.31      -33948.009     -33940.448     -7.5606755     -198.17733      108597.23      0.00031569882 -1.5342963    
        73   2.6994985     -33946.382     -33948.078     -33940.518     -7.5605817     -199.427        108597.23      0.00031569882 -1.5342963    
        74   2.6357435     -33946.481     -33948.137     -33940.576     -7.5605167     -200.87674      108597.23      0.00031569882 -1.5342963    
        75   2.5022903     -33946.612     -33948.184     -33940.623     -7.5604653     -202.60931      108597.23      0.00031569882 -1.5342963    
        76   2.3221758     -33946.763     -33948.221     -33940.661     -7.5604161     -204.42227      108597.23      0.00031569882 -1.5342963    
        77   2.1237679     -33946.918     -33948.252     -33940.692     -7.5603755     -206.23173      108597.23      0.00031569882 -1.5342963    
        78   1.9206347     -33947.07      -33948.277     -33940.716     -7.5603516     -208.0639       108597.23      0.00031569882 -1.5342963    
        79   1.7177168     -33947.218     -33948.297     -33940.737     -7.5603362     -209.76321      108597.23      0.00031569882 -1.5342963    
        80   1.5245038     -33947.356     -33948.314     -33940.754     -7.5603147     -211.31669      108597.23      0.00031569882 -1.5342963    
        81   1.3515687     -33947.479     -33948.329     -33940.768     -7.5602867     -212.71615      108597.23      0.00031569882 -1.5342963    
        82   1.2012661     -33947.587     -33948.341     -33940.781     -7.5602629     -213.88111      108597.23      0.00031569882 -1.5342963    
        83   1.0717613     -33947.679     -33948.352     -33940.792     -7.560249      -214.91584      108597.23      0.00031569882 -1.5342963    
        84   0.96298168    -33947.756     -33948.361     -33940.801     -7.5602435     -215.77247      108597.23      0.00031569882 -1.5342963    
        85   0.87176801    -33947.822     -33948.369     -33940.809     -7.5602438     -216.51138      108597.23      0.00031569882 -1.5342963    
        86   0.79202136    -33947.879     -33948.376     -33940.816     -7.56025       -217.13353      108597.23      0.00031569882 -1.5342963    
        87   0.72111454    -33947.929     -33948.382     -33940.822     -7.5602622     -217.70719      108597.23      0.00031569882 -1.5342963    
        88   0.65714264    -33947.975     -33948.388     -33940.827     -7.5602757     -218.09628      108597.23      0.00031569882 -1.5342963    
        89   0.59877987    -33948.016     -33948.392     -33940.832     -7.5602817     -218.75014      108597.23      0.00031569882 -1.5342963    
        90   0.54388623    -33948.054     -33948.396     -33940.835     -7.5602873     -218.47253      108597.23      0.00031569882 -1.5342963    
        91   0.47602167    -33948.099     -33948.398     -33940.838     -7.5602891     -220.65668      108597.23      0.00031569882 -1.5342963    
        92   0.37160585    -33948.167     -33948.401     -33940.841     -7.5603028     -219.22348      108597.23      0.00031569882 -1.5342963    
        93   0.29220034    -33948.219     -33948.403     -33940.842     -7.5603063     -220.78348      108597.23      0.00031569882 -1.5342963    
        94   0.24948019    -33948.248     -33948.404     -33940.844     -7.5603121     -221.11543      108597.23      0.00031569882 -1.5342963    
        95   0.20672053    -33948.276     -33948.406     -33940.845     -7.5603171     -220.52726      108597.23      0.00031569882 -1.5342963    
        96   0.16333783    -33948.304     -33948.407     -33940.846     -7.5603124     -221.8217       108597.23      0.00031569882 -1.5342963    
        97   0.1412227     -33948.319     -33948.408     -33940.847     -7.5603125     -221.20913      108597.23      0.00031569882 -1.5342963    
        98   0.12467095    -33948.33      -33948.408     -33940.848     -7.5603082     -222.03203      108597.23      0.00031569882 -1.5342963    
        99   0.099520803   -33948.347     -33948.409     -33940.849     -7.5603076     -221.92809      108597.23      0.00031569882 -1.5342963    
       100   0.081749199   -33948.358     -33948.41      -33940.849     -7.5603073     -221.47655      108597.23      0.00031569882 -1.5342963    
       101   0.068310768   -33948.367     -33948.41      -33940.85      -7.5603017     -222.64522      108597.23      0.00031569882 -1.5342963    
       102   0.054231315   -33948.376     -33948.41      -33940.85      -7.5603028     -222.01352      108597.23      0.00031569882 -1.5342963    
       103   0.045596718   -33948.382     -33948.41      -33940.85      -7.5603029     -221.82799      108597.23      0.00031569882 -1.5342963    
       104   0.037594788   -33948.387     -33948.411     -33940.85      -7.5603011     -222.90771      108597.23      0.00031569882 -1.5342963    
       105   0.028538146   -33948.393     -33948.411     -33940.85      -7.5603047     -222.27868      108597.23      0.00031569882 -1.5342963    
       106   0.023869882   -33948.396     -33948.411     -33940.85      -7.560308      -221.72357      108597.23      0.00031569882 -1.5342963    
       107   0.018202814   -33948.399     -33948.411     -33940.85      -7.5603065     -222.62825      108597.23      0.00031569882 -1.5342963    
       108   0.013857668   -33948.402     -33948.411     -33940.851     -7.5603074     -222.47607      108597.23      0.00031569882 -1.5342963    
       109   0.011009821   -33948.404     -33948.411     -33940.85      -7.56031       -221.91291      108597.23      0.00031569882 -1.5342963    
       110   0.0081364405  -33948.406     -33948.411     -33940.851     -7.5603095     -222.32818      108597.23      0.00031569882 -1.5342963    
       111   0.006367957   -33948.407     -33948.411     -33940.851     -7.5603087     -222.86131      108597.23      0.00031569882 -1.5342963    
       112   3.7809838e-07 -33948.411     -33948.411     -33940.851     -7.560309      -222.75676      108597.23      0.00031569882 -1.5342963    
       113   1.1251829e-06 -33948.411     -33948.411     -33940.851     -7.5603091     -222.73323      108597.23      0.00031569882 -1.5342963    
       114   2.1912444e-06 -33948.411     -33948.411     -33940.851     -7.5603093     -222.70063      108597.23      0.00031569882 -1.5342963    
       115   3.4730222e-06 -33948.411     -33948.411     -33940.851     -7.5603095     -222.66013      108597.23      0.00031569882 -1.5342963    
       116   4.849426e-06  -33948.411     -33948.411     -33940.851     -7.5603097     -222.6133       108597.23      0.00031569882 -1.5342963    
       117   6.1929931e-06 -33948.411     -33948.411     -33940.851     -7.5603099     -222.56229      108597.23      0.00031569882 -1.5342963    
       118   7.3755102e-06 -33948.411     -33948.411     -33940.851     -7.56031       -222.51003      108597.23      0.00031569882 -1.5342963    
       119   8.2681643e-06 -33948.411     -33948.411     -33940.851     -7.5603102     -222.46064      108597.23      0.00031569882 -1.5342963    
       120   8.7842486e-06 -33948.411     -33948.411     -33940.851     -7.5603103     -222.41909      108597.23      0.00031569882 -1.5342963    
       121   9.021599e-06  -33948.411     -33948.411     -33940.851     -7.5603104     -222.38948      108597.23      0.00031569882 -1.5342963    
       122   9.261856e-06  -33948.411     -33948.411     -33940.851     -7.5603104     -222.3733       108597.23      0.00031569882 -1.5342963    
       123   9.7274868e-06 -33948.411     -33948.411     -33940.851     -7.5603104     -222.36965      108597.23      0.00031569882 -1.5342963    
       124   1.0477737e-05 -33948.411     -33948.411     -33940.851     -7.5603104     -222.37619      108597.23      0.00031569882 -1.5342963    
       125   1.1460803e-05 -33948.411     -33948.411     -33940.851     -7.5603103     -222.3898       108597.23      0.00031569882 -1.5342963    
       126   1.2571546e-05 -33948.411     -33948.411     -33940.851     -7.5603102     -222.4069       108597.23      0.00031569882 -1.5342963    
       127   1.3693356e-05 -33948.411     -33948.411     -33940.851     -7.5603102     -222.42375      108597.23      0.00031569882 -1.5342963    
       128   1.4751701e-05 -33948.411     -33948.411     -33940.851     -7.5603101     -222.43711      108597.23      0.00031569882 -1.5342963    
       129   1.5756711e-05 -33948.411     -33948.411     -33940.851     -7.5603101     -222.4449       108597.23      0.00031569882 -1.5342963    
       130   1.677724e-05  -33948.411     -33948.411     -33940.851     -7.56031       -222.44661      108597.23      0.00031569882 -1.5342963    
       131   1.7871273e-05 -33948.411     -33948.411     -33940.851     -7.5603101     -222.44311      108597.23      0.00031569882 -1.5342963    
       132   1.9044698e-05 -33948.411     -33948.411     -33940.851     -7.5603101     -222.43628      108597.23      0.00031569882 -1.5342963    
       133   2.0385758e-05 -33948.411     -33948.411     -33940.851     -7.5603101     -222.42767      108597.23      0.00031569882 -1.5342963    
       134   2.1865108e-05 -33948.411     -33948.411     -33940.851     -7.5603101     -222.41994      108597.23      0.00031569882 -1.5342963    
       135   2.347722e-05  -33948.411     -33948.411     -33940.851     -7.56031       -222.41577      108597.23      0.00031569882 -1.5342963    
       136   2.5262883e-05 -33948.411     -33948.411     -33940.851     -7.56031       -222.41672      108597.23      0.00031569882 -1.5342963    
       137   2.7265039e-05 -33948.411     -33948.411     -33940.851     -7.5603099     -222.42195      108597.23      0.00031569882 -1.5342963    
       138   2.9467195e-05 -33948.411     -33948.411     -33940.851     -7.5603098     -222.42786      108597.23      0.00031569882 -1.5342963    
       139   3.1820471e-05 -33948.411     -33948.411     -33940.851     -7.5603097     -222.42963      108597.23      0.00031569882 -1.5342963    
       140   3.4154126e-05 -33948.411     -33948.411     -33940.851     -7.5603096     -222.42553      108597.23      0.00031569882 -1.5342963    
       141   3.6405559e-05 -33948.411     -33948.411     -33940.851     -7.5603096     -222.41987      108597.23      0.00031569882 -1.5342963    
       142   3.8511885e-05 -33948.411     -33948.411     -33940.851     -7.5603096     -222.41805      108597.23      0.00031569882 -1.5342963    
       143   4.0477796e-05 -33948.411     -33948.411     -33940.851     -7.5603095     -222.42074      108597.23      0.00031569882 -1.5342963    
       144   4.2302678e-05 -33948.411     -33948.411     -33940.851     -7.5603095     -222.42334      108597.23      0.00031569882 -1.5342963    
       145   4.39494e-05   -33948.411     -33948.411     -33940.851     -7.5603094     -222.42192      108597.23      0.00031569882 -1.5342963    
       146   4.544296e-05  -33948.411     -33948.411     -33940.851     -7.5603094     -222.41847      108597.23      0.00031569882 -1.5342963    
Loop time of 6.28584 on 4 procs for 146 steps with 4861 atoms

99.2% CPU use with 4 MPI tasks x no OpenMP threads

Minimization stats:
  Stopping criterion = energy tolerance
  Energy initial, next-to-last, final = 
     -33835.6392816262   -33948.410837586  -33948.4108375639
  Force two-norm initial, final = 46.657864 0.0026091974
  Force max component initial, final = 1.5985677 6.7011753e-05
  Final line search alpha, max atom move = 0 0
  Iterations, force evaluations = 146 149

MPI task timing breakdown:
Section |  min time  |  avg time  |  max time  |%varavg| %total
---------------------------------------------------------------
Pair    | 4.2239     | 4.2668     | 4.31       |   1.8 | 67.88
Neigh   | 1.8556     | 1.877      | 1.9003     |   1.2 | 29.86
Comm    | 0.077434   | 0.13286    | 0.18719    |  14.2 |  2.11
Output  | 0.0032579  | 0.0036084  | 0.0046367  |   1.0 |  0.06
Modify  | 0          | 0          | 0          |   0.0 |  0.00
Other   |            | 0.005566   |            |       |  0.09

Nlocal:        1215.25 ave        1220 max        1211 min
Histogram: 1 0 1 0 0 0 1 0 0 1
Nghost:        7298.25 ave        7303 max        7293 min
Histogram: 1 0 0 1 0 0 0 0 1 1
Neighs:              0 ave           0 max           0 min
Histogram: 4 0 0 0 0 0 0 0 0 0
FullNghs:       627979 ave      630844 max      625559 min
Histogram: 1 0 1 0 0 1 0 0 0 1

Total # of neighbors = 2511916
Ave neighs/atom = 516.74882
Neighbor list builds = 150
Dangerous builds not checked
WARNING: No fixes with time integration, atoms won't move (src/verlet.cpp:60)
Setting up Verlet run ...
  Unit style    : metal
  Current step  : 146
  Time step     : 0.001
Per MPI rank memory allocation (min/avg/max) = 9.159 | 9.159 | 9.159 Mbytes
   Step          Temp          TotEng         PotEng         E_vdwl         E_coul         Press          Volume          c_q1           c_q2     
       146   4.544296e-05  -33948.411     -33948.411     -33940.851     -7.5603094     -222.41847      108597.23      0.00031569882 -1.5342963    
Loop time of 1.03125e-06 on 4 procs for 0 steps with 4861 atoms

121.2% CPU use with 4 MPI tasks x no OpenMP threads

MPI task timing breakdown:
Section |  min time  |  avg time  |  max time  |%varavg| %total
---------------------------------------------------------------
Pair    | 0          | 0          | 0          |   0.0 |  0.00
Neigh   | 0          | 0          | 0          |   0.0 |  0.00
Comm    | 0          | 0          | 0          |   0.0 |  0.00
Output  | 0          | 0          | 0          |   0.0 |  0.00
Modify  | 0          | 0          | 0          |   0.0 |  0.00
Other   |            | 1.031e-06  |            |       |100.00

Nlocal:        1215.25 ave        1220 max        1211 min
Histogram: 1 0 1 0 0 0 1 0 0 1
Nghost:        7298.25 ave        7303 max        7293 min
Histogram: 1 0 0 1 0 0 0 0 1 1
Neighs:              0 ave           0 max           0 min
Histogram: 4 0 0 0 0 0 0 0 0 0
FullNghs:       627979 ave      630844 max      625559 min
Histogram: 1 0 1 0 0 1 0 0 0 1

Total # of neighbors = 2511916
Ave neighs/atom = 516.74882
Neighbor list builds = 0
Dangerous builds not checked
Total wall time: 0:00:06
