LAMMPS (27 Jun 2024)
Reading data file ...
  orthogonal box = (0 0 0) to (47.496082 49.359376 46.322428)
  2 by 2 by 1 MPI processor grid
  reading atoms ...
  4861 atoms
  read_data CPU = 0.011 seconds
Reading comb potential file ffield.comb with DATE: 2011-02-22
Pair COMB:
  generating Coulomb integral lookup table ...
  element[1] = Hf, z = 0.679131
  element[2] = O , z = 2.24307
  will apply over-coordination correction ...
4860 atoms in group type1
1 atoms in group type2

CITE-CITE-CITE-CITE-CITE-CITE-CITE-CITE-CITE-CITE-CITE-CITE-CITE

Your simulation uses code contributions which should be cited:
- Type Label Framework: https://doi.org/10.1021/acs.jpcb.3c08419
The log file lists these citations in BibTeX format.

CITE-CITE-CITE-CITE-CITE-CITE-CITE-CITE-CITE-CITE-CITE-CITE-CITE

Neighbor list info ...
  update: every = 1 steps, delay = 0 steps, check = no
  max neighbors/atom: 2000, page size: 100000
  master list distance cutoff = 14
  ghost atom cutoff = 14
  binsize = 7, bins = 7 8 7
  1 neighbor lists, perpetual/occasional/extra = 1 0 0
  (1) pair comb, perpetual
      attributes: full, newton on
      pair build: full/bin/atomonly
      stencil: full/bin/3d
      bin: standard
Setting up fire style minimization ...
  Unit style    : metal
  Current step  : 0
  Parameters for fire:
    dmax  delaystep dtgrow dtshrink alpha0 alphashrink tmax tmin   integrator   halfstepback   abcfire  
     0.1     20      1.1     0.5     0.25     0.99      10  0.02 eulerimplicit      yes          no     
Per MPI rank memory allocation (min/avg/max) = 8.894 | 8.894 | 8.894 Mbytes
   Step          Temp          TotEng         PotEng         E_vdwl         E_coul         Press          Volume          c_q1           c_q2     
         0   0             -33835.639     -33835.639     -33828.041     -7.5978146      2910.348       108597.23      0.00031569882 -1.5342963    
         1   0.37465275    -33835.838     -33836.073     -33828.475     -7.5977642      2899.2757      108597.23      0.00031569882 -1.5342963    
         2   1.1450259     -33836.11      -33836.829     -33829.231     -7.5976756      2880.7188      108597.23      0.00031569882 -1.5342963    
         3   2.3289993     -33836.438     -33837.901     -33830.304     -7.5975484      2854.9727      108597.23      0.00031569882 -1.5342963    
         4   3.9180722     -33836.821     -33839.282     -33831.685     -7.5973821      2822.2476      108597.23      0.00031569882 -1.5342963    
         5   5.9008566     -33837.255     -33840.962     -33833.364     -7.5971762      2782.8116      108597.23      0.00031569882 -1.5342963    
         6   8.2631806     -33837.736     -33842.927     -33835.33      -7.5969298      2736.9885      108597.23      0.00031569882 -1.5342963    
         7   10.988218     -33838.262     -33845.165     -33837.568     -7.5966422      2685.1542      108597.23      0.00031569882 -1.5342963    
         8   14.056642     -33838.828     -33847.659     -33840.062     -7.5963126      2627.7329      108597.23      0.00031569882 -1.5342963    
         9   17.4468       -33839.43      -33850.39      -33842.794     -7.5959399      2565.1926      108597.23      0.00031569882 -1.5342963    
        10   21.134911     -33840.063     -33853.34      -33845.745     -7.5955232      2498.04        108597.23      0.00031569882 -1.5342963    
        11   25.09528      -33840.723     -33856.488     -33848.893     -7.5950613      2426.8147      108597.23      0.00031569882 -1.5342963    
        12   29.300529     -33841.405     -33859.812     -33852.217     -7.5945534      2352.0837      108597.23      0.00031569882 -1.5342963    
        13   33.721838     -33842.104     -33863.289     -33855.695     -7.5939982      2274.4489      108597.23      0.00031569882 -1.5342963    
        14   38.329192     -33842.816     -33866.894     -33859.301     -7.5933948      2194.5163      108597.23      0.00031569882 -1.5342963    
        15   43.091645     -33843.535     -33870.606     -33863.013     -7.5927423      2112.8775      108597.23      0.00031569882 -1.5342963    
        16   47.977573     -33844.258     -33874.397     -33866.805     -7.5920396      2030.1536      108597.23      0.00031569882 -1.5342963    
        17   52.954937     -33844.979     -33878.246     -33870.654     -7.5912861      1946.937       108597.23      0.00031569882 -1.5342963    
        18   57.991532     -33845.695     -33882.126     -33874.535     -7.5904814      1863.8311      108597.23      0.00031569882 -1.5342963    
        19   63.055227     -33846.403     -33886.015     -33878.425     -7.5896253      1781.3957      108597.23      0.00031569882 -1.5342963    
        20   68.114199     -33847.099     -33889.888     -33882.3       -7.5887179      1700.1736      108597.23      0.00031569882 -1.5342963    
        21   73.137145     -33847.78      -33893.725     -33886.137     -7.58776        1620.6747      108597.23      0.00031569882 -1.5342963    
        22   78.603859     -33848.505     -33897.884     -33890.297     -7.5866469      1535.6716      108597.23      0.00031569882 -1.5342963    
        23   84.52182      -33849.256     -33902.353     -33894.767     -7.5853526      1445.9981      108597.23      0.00031569882 -1.5342963    
        24   90.854478     -33850.024     -33907.1       -33899.516     -7.5838468      1352.7014      108597.23      0.00031569882 -1.5342963    
        25   97.526184     -33850.803     -33912.069     -33904.487     -7.5820964      1257.3948      108597.23      0.00031569882 -1.5342963    
        26   104.40478     -33851.588     -33917.175     -33909.595     -7.5800668      1162.3302      108597.23      0.00031569882 -1.5342963    
        27   111.27603     -33852.392     -33922.296     -33914.718     -7.5777246      1070.1781      108597.23      0.00031569882 -1.5342963    
        28   117.80306     -33853.27      -33927.275     -33919.7       -7.5750446      983.66307      108597.23      0.00031569882 -1.5342963    
        29   123.45528     -33854.369     -33931.924     -33924.352     -7.5720261      904.80046      108597.23      0.00031569882 -1.5342963    
        30   127.37691     -33856.029     -33936.048     -33928.479     -7.5687211      832.98741      108597.23      0.00031569882 -1.5342963    
        31   128.17187     -33858.962     -33939.481     -33931.915     -7.5652811      762.16764      108597.23      0.00031569882 -1.5342963    
        32   123.77271     -33864.381     -33942.135     -33934.573     -7.5620163      678.72378      108597.23      0.00031569882 -1.5342963    
        33   112.16971     -33873.56      -33944.026     -33936.466     -7.5593911      566.56028      108597.23      0.00031569882 -1.5342963    
        34   93.351457     -33886.581     -33945.224     -33937.667     -7.5578581      423.17702      108597.23      0.00031569882 -1.5342963    
        35   70.014801     -33901.861     -33945.844     -33938.287     -7.5575612      265.05529      108597.23      0.00031569882 -1.5342963    
        36   47.227124     -33916.422     -33946.091     -33938.533     -7.5581578      120.19316      108597.23      0.00031569882 -1.5342963    
        37   0.014623667   -33946.109     -33946.119     -33938.561     -7.5580649     -172.7503       108597.23      0.00031569882 -1.5342963    
        38   0.044568771   -33946.119     -33946.147     -33938.589     -7.5581362     -173.25603      108597.23      0.00031569882 -1.5342963    
        39   0.090171025   -33946.13      -33946.186     -33938.628     -7.5582253     -173.94063      108597.23      0.00031569882 -1.5342963    
        40   0.15052992    -33946.142     -33946.236     -33938.678     -7.5583265     -174.78846      108597.23      0.00031569882 -1.5342963    
        41   0.22445885    -33946.155     -33946.296     -33938.738     -7.5584353     -175.78044      108597.23      0.00031569882 -1.5342963    
        42   0.31051946    -33946.169     -33946.364     -33938.806     -7.5585487     -176.89469      108597.23      0.00031569882 -1.5342963    
        43   0.40706017    -33946.184     -33946.439     -33938.881     -7.5586646     -178.10736      108597.23      0.00031569882 -1.5342963    
        44   0.51225802    -33946.199     -33946.52      -33938.962     -7.5587817     -179.39354      108597.23      0.00031569882 -1.5342963    
        45   0.62416286    -33946.214     -33946.606     -33939.047     -7.5588997     -180.7282       108597.23      0.00031569882 -1.5342963    
        46   0.74074254    -33946.229     -33946.694     -33939.135     -7.5590186     -182.0872       108597.23      0.00031569882 -1.5342963    
        47   0.85992766    -33946.244     -33946.784     -33939.225     -7.5591388     -183.44816      108597.23      0.00031569882 -1.5342963    
        48   0.97965395    -33946.259     -33946.874     -33939.315     -7.559261      -184.79135      108597.23      0.00031569882 -1.5342963    
        49   1.0979002     -33946.273     -33946.963     -33939.404     -7.5593859     -186.10036      108597.23      0.00031569882 -1.5342963    
        50   1.2127193     -33946.288     -33947.05      -33939.49      -7.5595141     -187.36271      108597.23      0.00031569882 -1.5342963    
        51   1.322261      -33946.303     -33947.134     -33939.574     -7.5596459     -188.57014      108597.23      0.00031569882 -1.5342963    
        52   1.4247825     -33946.318     -33947.213     -33939.654     -7.5597814     -189.71882      108597.23      0.00031569882 -1.5342963    
        53   1.5186492     -33946.335     -33947.289     -33939.729     -7.55992       -190.80929      108597.23      0.00031569882 -1.5342963    
        54   1.6023269     -33946.353     -33947.359     -33939.799     -7.5600604     -191.84617      108597.23      0.00031569882 -1.5342963    
        55   1.67438       -33946.373     -33947.425     -33939.865     -7.5602006     -192.83772      108597.23      0.00031569882 -1.5342963    
        56   1.7335096     -33946.397     -33947.486     -33939.926     -7.5603376     -193.79495      108597.23      0.00031569882 -1.5342963    
        57   1.778697      -33946.425     -33947.542     -33939.982     -7.5604678     -194.7301       108597.23      0.00031569882 -1.5342963    
        58   1.8164136     -33946.459     -33947.6       -33940.039     -7.5605996     -195.71795      108597.23      0.00031569882 -1.5342963    
        59   1.8433017     -33946.5       -33947.658     -33940.097     -7.5607262     -196.76806      108597.23      0.00031569882 -1.5342963    
        60   1.8562639     -33946.551     -33947.717     -33940.156     -7.5608377     -197.8926       108597.23      0.00031569882 -1.5342963    
        61   1.8554052     -33946.611     -33947.777     -33940.216     -7.5609215     -199.09046      108597.23      0.00031569882 -1.5342963    
        62   1.8459315     -33946.679     -33947.838     -33940.277     -7.560965      -200.33421      108597.23      0.00031569882 -1.5342963    
        63   1.836949      -33946.747     -33947.901     -33940.34      -7.5609587     -201.57101      108597.23      0.00031569882 -1.5342963    
        64   1.8369372     -33946.81      -33947.964     -33940.404     -7.5608998     -202.74216      108597.23      0.00031569882 -1.5342963    
        65   1.848918      -33946.866     -33948.027     -33940.466     -7.5607958     -203.80862      108597.23      0.00031569882 -1.5342963    
        66   1.8671677     -33946.914     -33948.087     -33940.526     -7.5606668     -204.77545      108597.23      0.00031569882 -1.5342963    
        67   1.8749015     -33946.964     -33948.142     -33940.581     -7.5605427     -205.71843      108597.23      0.00031569882 -1.5342963    
        68   1.8447665     -33947.031     -33948.19      -33940.63      -7.5604485     -206.79637      108597.23      0.00031569882 -1.5342963    
        69   1.7531606     -33947.13      -33948.231     -33940.671     -7.5603843     -208.15857      108597.23      0.00031569882 -1.5342963    
        70   1.6080163     -33947.256     -33948.266     -33940.706     -7.5603343     -209.73699      108597.23      0.00031569882 -1.5342963    
        71   1.4308313     -33947.396     -33948.294     -33940.734     -7.5603003     -211.43864      108597.23      0.00031569882 -1.5342963    
        72   1.2257306     -33947.547     -33948.317     -33940.757     -7.5602867     -213.27648      108597.23      0.00031569882 -1.5342963    
        73   1.0122802     -33947.7       -33948.336     -33940.776     -7.5602685     -214.89452      108597.23      0.00031569882 -1.5342963    
        74   0.81837291    -33947.837     -33948.351     -33940.791     -7.560218      -216.80494      108597.23      0.00031569882 -1.5342963    
        75   0.65589808    -33947.951     -33948.363     -33940.803     -7.5602024     -216.61006      108597.23      0.00031569882 -1.5342963    
        76   0.52253257    -33948.044     -33948.373     -33940.812     -7.5601908     -222.26278      108597.23      0.00031569882 -1.5342963    
        77   0.39060301    -33948.133     -33948.379     -33940.819     -7.5602273     -214.94359      108597.23      0.00031569882 -1.5342963    
        78   0.27401982    -33948.212     -33948.385     -33940.824     -7.5602326     -222.03831      108597.23      0.00031569882 -1.5342963    
        79   0.20814094    -33948.258     -33948.389     -33940.829     -7.5602506     -221.81258      108597.23      0.00031569882 -1.5342963    
        80   0.163041      -33948.29      -33948.392     -33940.832     -7.5602807     -218.8279       108597.23      0.00031569882 -1.5342963    
        81   0.12013429    -33948.32      -33948.396     -33940.836     -7.5602761     -222.90554      108597.23      0.00031569882 -1.5342963    
        82   0.096702064   -33948.337     -33948.398     -33940.838     -7.5602754     -222.02173      108597.23      0.00031569882 -1.5342963    
        83   0.075993695   -33948.353     -33948.4       -33940.84      -7.560292      -220.69007      108597.23      0.00031569882 -1.5342963    
        84   0.060886583   -33948.364     -33948.402     -33940.842     -7.5602939     -223.37219      108597.23      0.00031569882 -1.5342963    
        85   0.049522567   -33948.373     -33948.404     -33940.843     -7.5602949     -222.21228      108597.23      0.00031569882 -1.5342963    
        86   0.039876037   -33948.38      -33948.405     -33940.845     -7.5603059     -220.93902      108597.23      0.00031569882 -1.5342963    
        87   0.033537394   -33948.385     -33948.406     -33940.846     -7.560309      -223.32311      108597.23      0.00031569882 -1.5342963    
        88   0.027121558   -33948.39      -33948.407     -33940.847     -7.5603076     -222.83238      108597.23      0.00031569882 -1.5342963    
        89   0.023681162   -33948.393     -33948.408     -33940.847     -7.5603144     -220.71055      108597.23      0.00031569882 -1.5342963    
        90   0.019300089   -33948.396     -33948.409     -33940.848     -7.5603132     -222.38674      108597.23      0.00031569882 -1.5342963    
        91   0.017112362   -33948.398     -33948.409     -33940.849     -7.5603098     -223.56953      108597.23      0.00031569882 -1.5342963    
        92   0.014423434   -33948.4       -33948.409     -33940.849     -7.5603152     -221.6039       108597.23      0.00031569882 -1.5342963    
        93   0.011998338   -33948.402     -33948.41      -33940.85      -7.5603157     -222.03746      108597.23      0.00031569882 -1.5342963    
        94   0.010674933   -33948.403     -33948.41      -33940.85      -7.5603068     -223.51255      108597.23      0.00031569882 -1.5342963    
        95   0.0085129579  -33948.405     -33948.41      -33940.85      -7.5603052     -222.19249      108597.23      0.00031569882 -1.5342963    
        96   0.0072048019  -33948.406     -33948.411     -33940.85      -7.5603052     -221.84004      108597.23      0.00031569882 -1.5342963    
        97   0.0058962563  -33948.407     -33948.411     -33940.85      -7.5602996     -223.18246      108597.23      0.00031569882 -1.5342963    
        98   0.0044802363  -33948.408     -33948.411     -33940.85      -7.5603029     -222.49417      108597.23      0.00031569882 -1.5342963    
        99   0.003619302   -33948.408     -33948.411     -33940.85      -7.5603112     -221.66936      108597.23      0.00031569882 -1.5342963    
       100   2.9224847e-06 -33948.411     -33948.411     -33940.85      -7.5603086     -221.98755      108597.23      0.00031569882 -1.5342963    
       101   8.1581784e-06 -33948.411     -33948.411     -33940.85      -7.5603079     -222.12916      108597.23      0.00031569882 -1.5342963    
       102   1.4309975e-05 -33948.411     -33948.411     -33940.85      -7.560307      -222.30212      108597.23      0.00031569882 -1.5342963    
       103   1.9701262e-05 -33948.411     -33948.411     -33940.85      -7.5603064     -222.47018      108597.23      0.00031569882 -1.5342963    
       104   2.33451e-05   -33948.411     -33948.411     -33940.85      -7.560306      -222.58816      108597.23      0.00031569882 -1.5342963    
       105   2.6648678e-05 -33948.411     -33948.411     -33940.85      -7.5603059     -222.63065      108597.23      0.00031569882 -1.5342963    
       106   3.1656502e-05 -33948.411     -33948.411     -33940.85      -7.5603061     -222.60136      108597.23      0.00031569882 -1.5342963    
       107   3.8667236e-05 -33948.411     -33948.411     -33940.85      -7.5603065     -222.5228       108597.23      0.00031569882 -1.5342963    
       108   4.6671854e-05 -33948.411     -33948.411     -33940.85      -7.5603068     -222.43133      108597.23      0.00031569882 -1.5342963    
       109   5.4134377e-05 -33948.411     -33948.411     -33940.85      -7.5603071     -222.36875      108597.23      0.00031569882 -1.5342963    
       110   6.0956102e-05 -33948.411     -33948.411     -33940.85      -7.5603071     -222.35894      108597.23      0.00031569882 -1.5342963    
       111   6.8542929e-05 -33948.411     -33948.411     -33940.85      -7.5603071     -222.39587      108597.23      0.00031569882 -1.5342963    
       112   7.722049e-05  -33948.411     -33948.411     -33940.85      -7.5603072     -222.45021      108597.23      0.00031569882 -1.5342963    
       113   8.580736e-05  -33948.411     -33948.411     -33940.85      -7.5603073     -222.48503      108597.23      0.00031569882 -1.5342963    
       114   9.3855848e-05 -33948.411     -33948.411     -33940.85      -7.5603075     -222.48082      108597.23      0.00031569882 -1.5342963    
       115   0.00010231008 -33948.411     -33948.411     -33940.85      -7.5603078     -222.44795      108597.23      0.00031569882 -1.5342963    
       116   0.00011108285 -33948.411     -33948.411     -33940.85      -7.5603081     -222.41702      108597.23      0.00031569882 -1.5342963    
       117   0.00011929624 -33948.411     -33948.411     -33940.85      -7.5603083     -222.41319      108597.23      0.00031569882 -1.5342963    
       118   0.00012736908 -33948.411     -33948.411     -33940.85      -7.5603084     -222.43373      108597.23      0.00031569882 -1.5342963    
       119   0.0001354962  -33948.411     -33948.411     -33940.851     -7.5603086     -222.4528       108597.23      0.00031569882 -1.5342963    
       120   0.0001430838  -33948.411     -33948.411     -33940.851     -7.5603088     -222.44968      108597.23      0.00031569882 -1.5342963    
       121   0.0001513156  -33948.411     -33948.411     -33940.851     -7.560309      -222.42964      108597.23      0.00031569882 -1.5342963    
       122   0.00016007372 -33948.411     -33948.411     -33940.851     -7.5603092     -222.42187      108597.23      0.00031569882 -1.5342963    
       123   0.00016909667 -33948.411     -33948.411     -33940.851     -7.5603092     -222.43776      108597.23      0.00031569882 -1.5342963    
       124   0.00017839082 -33948.411     -33948.411     -33940.851     -7.5603093     -222.43891      108597.23      0.00031569882 -1.5342963    
       125   0.00018758851 -33948.411     -33948.411     -33940.851     -7.5603094     -222.41917      108597.23      0.00031569882 -1.5342963    
       126   0.00019620961 -33948.411     -33948.411     -33940.851     -7.5603094     -222.43866      108597.23      0.00031569882 -1.5342963    
       127   0.00020364492 -33948.411     -33948.411     -33940.851     -7.5603095     -222.40842      108597.23      0.00031569882 -1.5342963    
       128   0.00020682818 -33948.411     -33948.411     -33940.851     -7.5603093     -222.47285      108597.23      0.00031569882 -1.5342963    
       129   0.0001929296  -33948.411     -33948.411     -33940.851     -7.5603097     -222.29815      108597.23      0.00031569882 -1.5342963    
       130   0.00014981517 -33948.411     -33948.411     -33940.851     -7.560309      -222.51585      108597.23      0.00031569882 -1.5342963    
       131   0.00011663968 -33948.411     -33948.411     -33940.851     -7.5603094     -222.37979      108597.23      0.00031569882 -1.5342963    
       132   0.00010456145 -33948.411     -33948.411     -33940.851     -7.5603089     -222.46688      108597.23      0.00031569882 -1.5342963    
       133   9.026407e-05  -33948.411     -33948.411     -33940.851     -7.5603093     -222.34802      108597.23      0.00031569882 -1.5342963    
       134   6.9431226e-05 -33948.411     -33948.411     -33940.851     -7.5603089     -222.44234      108597.23      0.00031569882 -1.5342963    
       135   5.6998987e-05 -33948.411     -33948.411     -33940.851     -7.5603089     -222.43499      108597.23      0.00031569882 -1.5342963    
       136   4.7487407e-05 -33948.411     -33948.411     -33940.851     -7.5603091     -222.36982      108597.23      0.00031569882 -1.5342963    
       137   3.6893155e-05 -33948.411     -33948.411     -33940.851     -7.5603089     -222.44003      108597.23      0.00031569882 -1.5342963    
       138   3.2740436e-05 -33948.411     -33948.411     -33940.851     -7.560309      -222.39953      108597.23      0.00031569882 -1.5342963    
       139   2.9990004e-05 -33948.411     -33948.411     -33940.851     -7.560309      -222.43789      108597.23      0.00031569882 -1.5342963    
       140   2.4484393e-05 -33948.411     -33948.411     -33940.851     -7.5603091     -222.4002       108597.23      0.00031569882 -1.5342963    
       141   2.1177737e-05 -33948.411     -33948.411     -33940.851     -7.5603091     -222.42494      108597.23      0.00031569882 -1.5342963    
       142   1.9997343e-05 -33948.411     -33948.411     -33940.851     -7.5603093     -222.39916      108597.23      0.00031569882 -1.5342963    
       143   1.7153424e-05 -33948.411     -33948.411     -33940.851     -7.5603092     -222.42133      108597.23      0.00031569882 -1.5342963    
       144   1.3899367e-05 -33948.411     -33948.411     -33940.851     -7.5603093     -222.42169      108597.23      0.00031569882 -1.5342963    
       145   1.2439113e-05 -33948.411     -33948.411     -33940.851     -7.5603096     -222.38649      108597.23      0.00031569882 -1.5342963    
       146   1.0596865e-05 -33948.411     -33948.411     -33940.851     -7.5603094     -222.44029      108597.23      0.00031569882 -1.5342963    
       147   8.7756017e-06 -33948.411     -33948.411     -33940.851     -7.5603096     -222.39991      108597.23      0.00031569882 -1.5342963    
       148   8.0906097e-06 -33948.411     -33948.411     -33940.851     -7.5603096     -222.42092      108597.23      0.00031569882 -1.5342963    
       149   7.1983276e-06 -33948.411     -33948.411     -33940.851     -7.5603096     -222.39989      108597.23      0.00031569882 -1.5342963    
       150   5.7871254e-06 -33948.411     -33948.411     -33940.851     -7.5603096     -222.41667      108597.23      0.00031569882 -1.5342963    
       151   5.1046674e-06 -33948.411     -33948.411     -33940.851     -7.5603097     -222.40605      108597.23      0.00031569882 -1.5342963    
       152   4.6935337e-06 -33948.411     -33948.411     -33940.851     -7.5603095     -222.42103      108597.23      0.00031569882 -1.5342963    
       153   3.7960125e-06 -33948.411     -33948.411     -33940.851     -7.5603097     -222.40569      108597.23      0.00031569882 -1.5342963    
       154   3.0708843e-06 -33948.411     -33948.411     -33940.851     -7.5603096     -222.40832      108597.23      0.00031569882 -1.5342963    
       155   2.7364242e-06 -33948.411     -33948.411     -33940.851     -7.5603095     -222.42009      108597.23      0.00031569882 -1.5342963    
       156   2.2406742e-06 -33948.411     -33948.411     -33940.85      -7.5603096     -222.40171      108597.23      0.00031569882 -1.5342963    
       157   1.815045e-06  -33948.411     -33948.411     -33940.85      -7.5603096     -222.41308      108597.23      0.00031569882 -1.5342963    
Loop time of 6.77057 on 4 procs for 157 steps with 4861 atoms

99.1% CPU use with 4 MPI tasks x no OpenMP threads

Minimization stats:
  Stopping criterion = energy tolerance
  Energy initial, next-to-last, final = 
     -33835.6392816262  -33948.4108095683  -33948.4108095639
  Force two-norm initial, final = 46.657864 0.000271597
  Force max component initial, final = 1.5985677 7.8692496e-05
  Final line search alpha, max atom move = 0 0
  Iterations, force evaluations = 157 160

MPI task timing breakdown:
Section |  min time  |  avg time  |  max time  |%varavg| %total
---------------------------------------------------------------
Pair    | 4.5448     | 4.5847     | 4.6165     |   1.5 | 67.71
Neigh   | 2          | 2.0256     | 2.0394     |   1.1 | 29.92
Comm    | 0.10511    | 0.15061    | 0.19985    |  11.4 |  2.22
Output  | 0.0034398  | 0.003888   | 0.0052053  |   1.2 |  0.06
Modify  | 0          | 0          | 0          |   0.0 |  0.00
Other   |            | 0.005822   |            |       |  0.09

Nlocal:        1215.25 ave        1220 max        1211 min
Histogram: 1 0 1 0 0 0 1 0 0 1
Nghost:        7298.25 ave        7303 max        7293 min
Histogram: 1 0 0 1 0 0 0 0 1 1
Neighs:              0 ave           0 max           0 min
Histogram: 4 0 0 0 0 0 0 0 0 0
FullNghs:       627994 ave      630863 max      625585 min
Histogram: 1 0 1 0 0 1 0 0 0 1

Total # of neighbors = 2511974
Ave neighs/atom = 516.76075
Neighbor list builds = 161
Dangerous builds not checked
WARNING: No fixes with time integration, atoms won't move (src/verlet.cpp:60)
Setting up Verlet run ...
  Unit style    : metal
  Current step  : 157
  Time step     : 0.002
Per MPI rank memory allocation (min/avg/max) = 9.159 | 9.159 | 9.159 Mbytes
   Step          Temp          TotEng         PotEng         E_vdwl         E_coul         Press          Volume          c_q1           c_q2     
       157   1.815045e-06  -33948.411     -33948.411     -33940.85      -7.5603096     -222.41308      108597.23      0.00031569882 -1.5342963    
Loop time of 9.7925e-07 on 4 procs for 0 steps with 4861 atoms

102.1% CPU use with 4 MPI tasks x no OpenMP threads

MPI task timing breakdown:
Section |  min time  |  avg time  |  max time  |%varavg| %total
---------------------------------------------------------------
Pair    | 0          | 0          | 0          |   0.0 |  0.00
Neigh   | 0          | 0          | 0          |   0.0 |  0.00
Comm    | 0          | 0          | 0          |   0.0 |  0.00
Output  | 0          | 0          | 0          |   0.0 |  0.00
Modify  | 0          | 0          | 0          |   0.0 |  0.00
Other   |            | 9.792e-07  |            |       |100.00

Nlocal:        1215.25 ave        1220 max        1211 min
Histogram: 1 0 1 0 0 0 1 0 0 1
Nghost:        7298.25 ave        7303 max        7293 min
Histogram: 1 0 0 1 0 0 0 0 1 1
Neighs:              0 ave           0 max           0 min
Histogram: 4 0 0 0 0 0 0 0 0 0
FullNghs:       627994 ave      630863 max      625585 min
Histogram: 1 0 1 0 0 1 0 0 0 1

Total # of neighbors = 2511974
Ave neighs/atom = 516.76075
Neighbor list builds = 0
Dangerous builds not checked
Total wall time: 0:00:06
