LAMMPS (27 Jun 2024)
Reading data file ...
  orthogonal box = (0 0 0) to (47.496082 49.359376 46.322428)
  2 by 2 by 1 MPI processor grid
  reading atoms ...
  4861 atoms
  read_data CPU = 0.011 seconds
Reading comb potential file ffield.comb with DATE: 2011-02-22
Pair COMB:
  generating Coulomb integral lookup table ...
  element[1] = Hf, z = 0.679131
  element[2] = O , z = 2.24307
  will apply over-coordination correction ...
4860 atoms in group type1
1 atoms in group type2

CITE-CITE-CITE-CITE-CITE-CITE-CITE-CITE-CITE-CITE-CITE-CITE-CITE

Your simulation uses code contributions which should be cited:
- Type Label Framework: https://doi.org/10.1021/acs.jpcb.3c08419
The log file lists these citations in BibTeX format.

CITE-CITE-CITE-CITE-CITE-CITE-CITE-CITE-CITE-CITE-CITE-CITE-CITE

Neighbor list info ...
  update: every = 1 steps, delay = 0 steps, check = no
  max neighbors/atom: 2000, page size: 100000
  master list distance cutoff = 14
  ghost atom cutoff = 14
  binsize = 7, bins = 7 8 7
  1 neighbor lists, perpetual/occasional/extra = 1 0 0
  (1) pair comb, perpetual
      attributes: full, newton on
      pair build: full/bin/atomonly
      stencil: full/bin/3d
      bin: standard
Setting up sd style minimization ...
  Unit style    : metal
  Current step  : 0
Per MPI rank memory allocation (min/avg/max) = 10.02 | 10.02 | 10.02 Mbytes
   Step          Temp          TotEng         PotEng         E_vdwl         E_coul         Press          Volume          c_q1           c_q2     
         0   0             -33835.639     -33835.639     -33828.041     -7.5978146      2910.348       108597.23      0.00031569882 -1.5342963    
         1   0             -33917.402     -33917.402     -33909.824     -7.5785768      486.42256      108597.23      0.00031569882 -1.5342963    
         2   0             -33941.019     -33941.019     -33933.46      -7.5596865     -34.656878      108597.23      0.00031569882 -1.5342963    
         3   0             -33943.659     -33943.659     -33936.097     -7.5623418     -142.01745      108597.23      0.00031569882 -1.5342963    
         4   0             -33945.386     -33945.386     -33937.823     -7.5625131     -140.23862      108597.23      0.00031569882 -1.5342963    
         5   0             -33946.188     -33946.188     -33938.626     -7.5620702     -232.80563      108597.23      0.00031569882 -1.5342963    
         6   0             -33946.665     -33946.665     -33939.104     -7.5616902     -138.57235      108597.23      0.00031569882 -1.5342963    
         7   0             -33946.883     -33946.883     -33939.322     -7.5614342     -203.88833      108597.23      0.00031569882 -1.5342963    
         8   0             -33947.637     -33947.637     -33940.077     -7.5605148     -103.35777      108597.23      0.00031569882 -1.5342963    
         9   0             -33947.864     -33947.864     -33940.304     -7.5602932     -225.1124       108597.23      0.00031569882 -1.5342963    
        10   0             -33947.9       -33947.9       -33940.339     -7.5604191     -206.02221      108597.23      0.00031569882 -1.5342963    
        11   0             -33947.995     -33947.995     -33940.434     -7.5606034     -241.74763      108597.23      0.00031569882 -1.5342963    
        12   0             -33948.033     -33948.033     -33940.473     -7.5606974     -199.35793      108597.23      0.00031569882 -1.5342963    
        13   0             -33948.057     -33948.057     -33940.496     -7.5606154     -222.96948      108597.23      0.00031569882 -1.5342963    
        14   0             -33948.085     -33948.085     -33940.524     -7.5606309     -202.68818      108597.23      0.00031569882 -1.5342963    
        15   0             -33948.101     -33948.101     -33940.541     -7.5605712     -222.03869      108597.23      0.00031569882 -1.5342963    
        16   0             -33948.121     -33948.121     -33940.56      -7.5605911     -206.07165      108597.23      0.00031569882 -1.5342963    
        17   0             -33948.135     -33948.135     -33940.574     -7.5605448     -221.79423      108597.23      0.00031569882 -1.5342963    
        18   0             -33948.15      -33948.15      -33940.589     -7.5605596     -208.66314      108597.23      0.00031569882 -1.5342963    
        19   0             -33948.162     -33948.162     -33940.601     -7.5605232     -221.60391      108597.23      0.00031569882 -1.5342963    
        20   0             -33948.174     -33948.174     -33940.614     -7.5605329     -210.6648       108597.23      0.00031569882 -1.5342963    
        21   0             -33948.184     -33948.184     -33940.624     -7.5605042     -221.48831      108597.23      0.00031569882 -1.5342963    
        22   0             -33948.195     -33948.195     -33940.634     -7.5605098     -212.18378      108597.23      0.00031569882 -1.5342963    
        23   0             -33948.204     -33948.204     -33940.643     -7.560487      -221.4426       108597.23      0.00031569882 -1.5342963    
        24   0             -33948.212     -33948.212     -33940.652     -7.5604895     -213.31989      108597.23      0.00031569882 -1.5342963    
        25   0             -33948.22      -33948.22      -33940.66      -7.5604712     -221.45805      108597.23      0.00031569882 -1.5342963    
        26   0             -33948.227     -33948.227     -33940.667     -7.5604717     -214.15791      108597.23      0.00031569882 -1.5342963    
        27   0             -33948.235     -33948.235     -33940.674     -7.5604567     -221.52075      108597.23      0.00031569882 -1.5342963    
        28   0             -33948.24      -33948.24      -33940.68      -7.5604558     -214.76826      108597.23      0.00031569882 -1.5342963    
        29   0             -33948.247     -33948.247     -33940.687     -7.5604433     -221.61619      108597.23      0.00031569882 -1.5342963    
        30   0             -33948.252     -33948.252     -33940.692     -7.5604425     -218.69305      108597.23      0.00031569882 -1.5342963    
        31   0             -33948.262     -33948.262     -33940.701     -7.5604142     -224.09946      108597.23      0.00031569882 -1.5342963    
        32   0             -33948.274     -33948.274     -33940.713     -7.5604133     -221.18664      108597.23      0.00031569882 -1.5342963    
        33   0             -33948.29      -33948.29      -33940.729     -7.5604218     -201.18446      108597.23      0.00031569882 -1.5342963    
        34   0             -33948.304     -33948.304     -33940.744     -7.5603752     -221.60217      108597.23      0.00031569882 -1.5342963    
        35   0             -33948.312     -33948.312     -33940.751     -7.5603798     -212.86589      108597.23      0.00031569882 -1.5342963    
        36   0             -33948.315     -33948.315     -33940.755     -7.5603636     -220.61988      108597.23      0.00031569882 -1.5342963    
        37   0             -33948.343     -33948.343     -33940.783     -7.5603117     -225.94112      108597.23      0.00031569882 -1.5342963    
        38   0             -33948.348     -33948.348     -33940.787     -7.5603236     -221.7255       108597.23      0.00031569882 -1.5342963    
        39   0             -33948.348     -33948.348     -33940.788     -7.5603238     -221.05367      108597.23      0.00031569882 -1.5342963    
        40   0             -33948.35      -33948.35      -33940.79      -7.5603175     -221.50182      108597.23      0.00031569882 -1.5342963    
        41   0             -33948.354     -33948.354     -33940.794     -7.5603203     -222.038        108597.23      0.00031569882 -1.5342963    
        42   0             -33948.356     -33948.356     -33940.795     -7.5603197     -221.17239      108597.23      0.00031569882 -1.5342963    
        43   0             -33948.357     -33948.357     -33940.796     -7.5603154     -221.44518      108597.23      0.00031569882 -1.5342963    
        44   0             -33948.37      -33948.37      -33940.81      -7.5602984     -224.09253      108597.23      0.00031569882 -1.5342963    
        45   0             -33948.372     -33948.372     -33940.811     -7.5603094     -220.15934      108597.23      0.00031569882 -1.5342963    
        46   0             -33948.372     -33948.372     -33940.812     -7.5602993     -223.42928      108597.23      0.00031569882 -1.5342963    
        47   0             -33948.373     -33948.373     -33940.813     -7.560308      -220.46249      108597.23      0.00031569882 -1.5342963    
        48   0             -33948.374     -33948.374     -33940.814     -7.5602997     -223.13245      108597.23      0.00031569882 -1.5342963    
        49   0             -33948.374     -33948.374     -33940.814     -7.5603068     -220.75808      108597.23      0.00031569882 -1.5342963    
        50   0             -33948.375     -33948.375     -33940.815     -7.5602932     -224.96877      108597.23      0.00031569882 -1.5342963    
        51   0             -33948.376     -33948.376     -33940.816     -7.560302      -222.20202      108597.23      0.00031569882 -1.5342963    
        52   0             -33948.38      -33948.38      -33940.82      -7.5603258     -212.9793       108597.23      0.00031569882 -1.5342963    
        53   0             -33948.385     -33948.385     -33940.824     -7.5603075     -219.47889      108597.23      0.00031569882 -1.5342963    
        54   0             -33948.385     -33948.385     -33940.825     -7.5603002     -221.97787      108597.23      0.00031569882 -1.5342963    
        55   0             -33948.391     -33948.391     -33940.831     -7.5602927     -224.65505      108597.23      0.00031569882 -1.5342963    
        56   0             -33948.391     -33948.391     -33940.831     -7.5602985     -222.38981      108597.23      0.00031569882 -1.5342963    
        57   0             -33948.396     -33948.396     -33940.835     -7.5603157     -216.93739      108597.23      0.00031569882 -1.5342963    
        58   0             -33948.397     -33948.397     -33940.836     -7.5603055     -220.4973       108597.23      0.00031569882 -1.5342963    
        59   0             -33948.397     -33948.397     -33940.836     -7.5603055     -220.4973       108597.23      0.00031569882 -1.5342963    
Loop time of 9.69817 on 4 procs for 59 steps with 4861 atoms

99.5% CPU use with 4 MPI tasks x no OpenMP threads

Minimization stats:
  Stopping criterion = energy tolerance
  Energy initial, next-to-last, final = 
     -33835.6392816262  -33948.3967319081  -33948.3967319081
  Force two-norm initial, final = 46.657864 0.12757271
  Force max component initial, final = 1.5985677 0.046699701
  Final line search alpha, max atom move = 4.7683716e-07 2.2268153e-08
  Iterations, force evaluations = 59 233

MPI task timing breakdown:
Section |  min time  |  avg time  |  max time  |%varavg| %total
---------------------------------------------------------------
Pair    | 6.5044     | 6.5811     | 6.6484     |   2.4 | 67.86
Neigh   | 2.8691     | 2.9024     | 2.9743     |   2.5 | 29.93
Comm    | 0.067706   | 0.20694    | 0.31445    |  21.8 |  2.13
Output  | 0.0014061  | 0.0015802  | 0.0020825  |   0.7 |  0.02
Modify  | 0          | 0          | 0          |   0.0 |  0.00
Other   |            | 0.006143   |            |       |  0.06

Nlocal:        1215.25 ave        1217 max        1213 min
Histogram: 1 0 1 0 0 0 0 0 0 2
Nghost:        7298.25 ave        7301 max        7296 min
Histogram: 2 0 0 0 0 0 0 0 1 1
Neighs:              0 ave           0 max           0 min
Histogram: 4 0 0 0 0 0 0 0 0 0
FullNghs:       628308 ave      629533 max      627178 min
Histogram: 1 1 0 0 0 0 0 1 0 1

Total # of neighbors = 2513234
Ave neighs/atom = 517.01995
Neighbor list builds = 234
Dangerous builds not checked
Setting up Verlet run ...
  Unit style    : metal
  Current step  : 59
  Time step     : 0.001
Per MPI rank memory allocation (min/avg/max) = 9.144 | 9.144 | 9.144 Mbytes
   Step          Temp          TotEng         PotEng         E_vdwl         E_coul         Press          Volume          c_q1           c_q2     
        59   100           -33885.576     -33948.397     -33940.836     -7.5603055      397.37859      108597.23      0.00031569882 -1.5342963    
       100   43.517724     -33887.861     -33915.199     -33907.645     -7.5540839      1089.459       108597.23      0.00031569882 -1.5342963    
       200   67.412029     -33882.057     -33924.405     -33916.848     -7.5570656      847.8217       108597.23      0.00031569882 -1.5342963    
       300   62.240992     -33876.636     -33915.737     -33908.177     -7.5593019      1002.626       108597.23      0.00031569882 -1.5342963    
       400   76.85497      -33867.952     -33916.232     -33908.679     -7.5532518      1162.8943      108597.23      0.00031569882 -1.5342963    
       500   78.391946     -33861.343     -33910.589     -33903.042     -7.5472033      1296.5823      108597.23      0.00031569882 -1.5342963    
       600   86.198593     -33854.78      -33908.93      -33901.383     -7.5464784      1406.6353      108597.23      0.00031569882 -1.5342963    
       700   77.210138     -33855.324     -33903.827     -33896.27      -7.557715       1520.9245      108597.23      0.00031569882 -1.5342963    
       800   72.218742     -33859.779     -33905.147     -33897.589     -7.5584727      1412.8031      108597.23      0.00031569882 -1.5342963    
       900   66.303781     -33866.04      -33907.692     -33900.135     -7.5572565      1356.7973      108597.23      0.00031569882 -1.5342963    
      1000   59.847691     -33872.604     -33910.201     -33902.651     -7.549299       1234.3252      108597.23      0.00031569882 -1.5342963    
      1100   58.708491     -33877.584     -33914.465     -33906.91      -7.554828       1115.2398      108597.23      0.00031569882 -1.5342963    
      1200   54.747034     -33882.858     -33917.25      -33909.713     -7.5370473      974.21519      108597.23      0.00031569882 -1.5342963    
      1300   50.484726     -33888.117     -33919.832     -33912.284     -7.5485321      896.81949      108597.23      0.00031569882 -1.5342963    
      1400   46.359108     -33893.106     -33922.229     -33914.679     -7.5499556      825.77502      108597.23      0.00031569882 -1.5342963    
      1500   42.476862     -33897.82      -33924.504     -33916.952     -7.5516367      678.6338       108597.23      0.00031569882 -1.5342963    
      1600   38.155869     -33902.733     -33926.703     -33919.141     -7.5619249      673.84022      108597.23      0.00031569882 -1.5342963    
      1700   33.435883     -33907.56      -33928.564     -33921.009     -7.5555692      540.32764      108597.23      0.00031569882 -1.5342963    
      1800   29.444381     -33912.315     -33930.812     -33923.243     -7.5688419      438.01618      108597.23      0.00031569882 -1.5342963    
      1900   26.396073     -33916.78      -33933.362     -33925.816     -7.5456609      404.78845      108597.23      0.00031569882 -1.5342963    
      2000   21.38528      -33921.625     -33935.06      -33927.49      -7.5696417      265.03071      108597.23      0.00031569882 -1.5342963    
      2059   20.63277      -33924.205     -33937.167     -33929.594     -7.5725163      236.49442      108597.23      0.00031569882 -1.5342963    
Loop time of 92.4544 on 4 procs for 2000 steps with 4861 atoms

Performance: 1.869 ns/day, 12.841 hours/ns, 21.632 timesteps/s, 105.155 katom-step/s
97.8% CPU use with 4 MPI tasks x no OpenMP threads

MPI task timing breakdown:
Section |  min time  |  avg time  |  max time  |%varavg| %total
---------------------------------------------------------------
Pair    | 60.928     | 61.357     | 61.74      |   4.8 | 66.36
Neigh   | 28.716     | 29.037     | 29.524     |   5.7 | 31.41
Comm    | 1.1498     | 1.9988     | 2.744      |  46.1 |  2.16
Output  | 0.000698   | 0.0012209  | 0.0027744  |   2.6 |  0.00
Modify  | 0.043724   | 0.046569   | 0.049278   |   1.2 |  0.05
Other   |            | 0.01403    |            |       |  0.02

Nlocal:        1215.25 ave        1222 max        1208 min
Histogram: 1 0 1 0 0 0 0 0 1 1
Nghost:        7298.25 ave        7306 max        7291 min
Histogram: 1 1 0 0 0 0 0 0 1 1
Neighs:              0 ave           0 max           0 min
Histogram: 4 0 0 0 0 0 0 0 0 0
FullNghs:       630462 ave      633990 max      626810 min
Histogram: 1 1 0 0 0 0 0 0 1 1

Total # of neighbors = 2521848
Ave neighs/atom = 518.79202
Neighbor list builds = 2000
Dangerous builds not checked
Setting up sd style minimization ...
  Unit style    : metal
  Current step  : 2059
Per MPI rank memory allocation (min/avg/max) = 10.27 | 10.27 | 10.27 Mbytes
   Step          Temp          TotEng         PotEng         E_vdwl         E_coul         Press          Volume          c_q1           c_q2     
      2059   20.63277      -33924.205     -33937.167     -33929.594     -7.5725163      236.49442      108597.23      0.00031569882 -1.5342963    
      2060   20.63277      -33931.604     -33944.566     -33936.999     -7.566766      -18.717502      108597.23      0.00031569882 -1.5342963    
      2061   20.63277      -33933.905     -33946.867     -33939.303     -7.5632126     -45.305462      108597.23      0.00031569882 -1.5342963    
      2062   20.63277      -33934.907     -33947.869     -33940.308     -7.5603942     -126.54186      108597.23      0.00031569882 -1.5342963    
      2063   20.63277      -33935.086     -33948.048     -33940.487     -7.5607178     -56.12772       108597.23      0.00031569882 -1.5342963    
      2064   20.63277      -33935.164     -33948.126     -33940.565     -7.5605558     -106.34851      108597.23      0.00031569882 -1.5342963    
      2065   20.63277      -33935.223     -33948.184     -33940.624     -7.5605857     -60.759587      108597.23      0.00031569882 -1.5342963    
      2066   20.63277      -33935.258     -33948.22      -33940.659     -7.5605116     -86.191761      108597.23      0.00031569882 -1.5342963    
      2067   20.63277      -33935.315     -33948.277     -33940.716     -7.5602358     -124.04018      108597.23      0.00031569882 -1.5342963    
      2068   20.63277      -33935.35      -33948.312     -33940.751     -7.5603091     -102.71995      108597.23      0.00031569882 -1.5342963    
      2069   20.63277      -33935.358     -33948.32      -33940.759     -7.5603478     -90.498773      108597.23      0.00031569882 -1.5342963    
      2070   20.63277      -33935.376     -33948.337     -33940.777     -7.5603132     -111.26179      108597.23      0.00031569882 -1.5342963    
      2071   20.63277      -33935.387     -33948.349     -33940.788     -7.5603768     -88.023455      108597.23      0.00031569882 -1.5342963    
      2072   20.63277      -33935.391     -33948.353     -33940.792     -7.5603484     -99.293157      108597.23      0.00031569882 -1.5342963    
      2073   20.63277      -33935.394     -33948.356     -33940.796     -7.5603739     -89.097657      108597.23      0.00031569882 -1.5342963    
      2074   20.63277      -33935.398     -33948.359     -33940.799     -7.5603508     -98.509653      108597.23      0.00031569882 -1.5342963    
      2075   20.63277      -33935.4       -33948.362     -33940.801     -7.5603711     -89.951589      108597.23      0.00031569882 -1.5342963    
      2076   20.63277      -33935.403     -33948.364     -33940.804     -7.5603519     -97.909038      108597.23      0.00031569882 -1.5342963    
      2077   20.63277      -33935.405     -33948.367     -33940.806     -7.5603681     -90.632818      108597.23      0.00031569882 -1.5342963    
      2078   20.63277      -33935.407     -33948.369     -33940.808     -7.5603522     -97.441979      108597.23      0.00031569882 -1.5342963    
      2079   20.63277      -33935.409     -33948.371     -33940.81      -7.5603651     -91.177928      108597.23      0.00031569882 -1.5342963    
      2080   20.63277      -33935.411     -33948.372     -33940.812     -7.5603517     -97.077552      108597.23      0.00031569882 -1.5342963    
      2081   20.63277      -33935.412     -33948.374     -33940.814     -7.5603621     -91.615453      108597.23      0.00031569882 -1.5342963    
      2082   20.63277      -33935.414     -33948.376     -33940.815     -7.5603507     -96.793722      108597.23      0.00031569882 -1.5342963    
      2083   20.63277      -33935.415     -33948.377     -33940.817     -7.5603591     -91.967312      108597.23      0.00031569882 -1.5342963    
      2084   20.63277      -33935.417     -33948.378     -33940.818     -7.5603493     -96.573896      108597.23      0.00031569882 -1.5342963    
      2085   20.63277      -33935.418     -33948.379     -33940.819     -7.5603561     -92.250478      108597.23      0.00031569882 -1.5342963    
      2086   20.63277      -33935.419     -33948.381     -33940.82      -7.5603477     -96.40523       108597.23      0.00031569882 -1.5342963    
      2087   20.63277      -33935.42      -33948.382     -33940.821     -7.5603532     -92.478248      108597.23      0.00031569882 -1.5342963    
      2088   20.63277      -33935.421     -33948.383     -33940.822     -7.5603458     -96.277629      108597.23      0.00031569882 -1.5342963    
      2089   20.63277      -33935.422     -33948.384     -33940.823     -7.5603503     -92.66114       108597.23      0.00031569882 -1.5342963    
      2090   20.63277      -33935.423     -33948.384     -33940.824     -7.5603439     -96.183074      108597.23      0.00031569882 -1.5342963    
      2091   20.63277      -33935.424     -33948.385     -33940.825     -7.5603476     -92.80754       108597.23      0.00031569882 -1.5342963    
      2092   20.63277      -33935.424     -33948.386     -33940.826     -7.5603447     -94.502065      108597.23      0.00031569882 -1.5342963    
      2093   20.63277      -33935.434     -33948.396     -33940.835     -7.5603266     -94.029193      108597.23      0.00031569882 -1.5342963    
      2094   20.63277      -33935.434     -33948.396     -33940.836     -7.5603256     -94.669995      108597.23      0.00031569882 -1.5342963    
      2095   20.63277      -33935.438     -33948.399     -33940.839     -7.5603131     -94.262739      108597.23      0.00031569882 -1.5342963    
      2096   20.63277      -33935.439     -33948.4       -33940.84      -7.5603075     -97.096146      108597.23      0.00031569882 -1.5342963    
      2097   20.63277      -33935.439     -33948.401     -33940.841     -7.5603118     -94.831551      108597.23      0.00031569882 -1.5342963    
      2098   20.63277      -33935.439     -33948.401     -33940.841     -7.5603118     -94.831551      108597.23      0.00031569882 -1.5342963    
Loop time of 9.22084 on 4 procs for 39 steps with 4861 atoms

99.1% CPU use with 4 MPI tasks x no OpenMP threads

Minimization stats:
  Stopping criterion = energy tolerance
  Energy initial, next-to-last, final = 
     -33937.1666738665  -33948.4010659164  -33948.4010659164
  Force two-norm initial, final = 14.708621 0.055398979
  Force max component initial, final = 0.48151717 0.006310346
  Final line search alpha, max atom move = 3.8146973e-06 2.4072059e-08
  Iterations, force evaluations = 39 182

MPI task timing breakdown:
Section |  min time  |  avg time  |  max time  |%varavg| %total
---------------------------------------------------------------
Pair    | 6.2266     | 6.2888     | 6.3464     |   2.1 | 68.20
Neigh   | 2.6851     | 2.7218     | 2.786      |   2.4 | 29.52
Comm    | 0.092665   | 0.20303    | 0.30179    |  19.4 |  2.20
Output  | 0.0010069  | 0.0011321  | 0.0014991  |   0.6 |  0.01
Modify  | 0          | 0          | 0          |   0.0 |  0.00
Other   |            | 0.006098   |            |       |  0.07

Nlocal:        1215.25 ave        1218 max        1212 min
Histogram: 1 0 0 1 0 0 0 0 1 1
Nghost:        7298.25 ave        7302 max        7295 min
Histogram: 1 1 0 0 0 0 0 1 0 1
Neighs:              0 ave           0 max           0 min
Histogram: 4 0 0 0 0 0 0 0 0 0
FullNghs:       628184 ave      629476 max      626552 min
Histogram: 1 0 1 0 0 0 0 0 0 2

Total # of neighbors = 2512734
Ave neighs/atom = 516.9171
Neighbor list builds = 183
Dangerous builds not checked
Setting up Verlet run ...
  Unit style    : metal
  Current step  : 2098
  Time step     : 0.001
Per MPI rank memory allocation (min/avg/max) = 9.159 | 9.159 | 9.159 Mbytes
   Step          Temp          TotEng         PotEng         E_vdwl         E_coul         Press          Volume          c_q1           c_q2     
      2098   20.63277      -33935.439     -33948.401     -33940.841     -7.5603118     -94.831551      108597.23      0.00031569882 -1.5342963    
Loop time of 1.2915e-06 on 4 procs for 0 steps with 4861 atoms

116.1% CPU use with 4 MPI tasks x no OpenMP threads

MPI task timing breakdown:
Section |  min time  |  avg time  |  max time  |%varavg| %total
---------------------------------------------------------------
Pair    | 0          | 0          | 0          |   0.0 |  0.00
Neigh   | 0          | 0          | 0          |   0.0 |  0.00
Comm    | 0          | 0          | 0          |   0.0 |  0.00
Output  | 0          | 0          | 0          |   0.0 |  0.00
Modify  | 0          | 0          | 0          |   0.0 |  0.00
Other   |            | 1.291e-06  |            |       |100.00

Nlocal:        1215.25 ave        1218 max        1212 min
Histogram: 1 0 0 1 0 0 0 0 1 1
Nghost:        7298.25 ave        7302 max        7295 min
Histogram: 1 1 0 0 0 0 0 1 0 1
Neighs:              0 ave           0 max           0 min
Histogram: 4 0 0 0 0 0 0 0 0 0
FullNghs:       628184 ave      629476 max      626552 min
Histogram: 1 0 1 0 0 0 0 0 0 2

Total # of neighbors = 2512734
Ave neighs/atom = 516.9171
Neighbor list builds = 0
Dangerous builds not checked
Total wall time: 0:01:51
