ITEM: TIMESTEP
2098
ITEM: NUMBER OF ATOMS
4861
ITEM: BOX BOUNDS pp pp pp
0.0000000000000000e+00 4.7496081794731396e+01
0.0000000000000000e+00 4.9359376101810554e+01
0.0000000000000000e+00 4.6322427954443121e+01
ITEM: ATOMS id type q x y z
1 1  0.00487656740697886     3.17986157212921     1.83197455286675     1.22311440425121
2 1 -0.00441741322653016     1.59451297943657    0.918246832037188     3.80138663837818
3 1  0.00475601211299281   0.0109174034032009     3.66110965156752     3.80791068143887
4 1 -0.00264356395255783     1.60012623490308     4.57725605619928     1.23374677852527
5 1  0.00222424700214184     3.17658587534731     1.83660532471266     6.37528124314689
6 1 -0.000607617503431137     1.59471850984674    0.927622708291326     8.94999692983457
7 1 -0.00681918689196138  0.00424956582042521     3.66514801831529     8.96079685872687
8 1 -0.00254688372836621     1.57958728397234     4.56483521795473     6.38904620301066
9 1  0.00113909571814848     3.17769457071264     1.84698549088183     11.5224743780167
10 1  0.00418808618636735     1.59460192488183    0.932030794378787     14.0947168088844
11 1  0.00327921086813582  0.00884044486212685     3.67304759306652     14.1067195478633
12 1  0.00425646474665883     1.59021315870615     4.58408207116562     11.5375882503993
13 1 -0.00143296433176984     3.17833604953839     1.84557733457646     16.6659556031419
14 1  0.00312485617280981     1.58934273129311    0.926686187247487      19.224520831459
15 1 -0.00745017256737504   0.0050900238912257      3.6600337713618     19.2662912286884
16 1 -0.00434131594904268     1.59089626766568     4.57966489342405     16.6893770425676
17 1  0.00856638195689632     3.24275378947855     1.81597317326606     21.7565160021321
18 1   -0.013483207676186      1.5847480997504     1.22538592361539     24.1781091207786
19 1  0.00941265217028421     47.4230679759901     3.71435928140802     24.4564618008053
20 1  -0.0099337803831262     1.58542176779421     4.30570240874924     22.0360376562851
21 1 -0.00177083442203161     3.16959712727723     1.87120892935407     26.9473104945846
22 1 -0.00269664683524726     1.58465507004157    0.950325614274358     29.5233849114856
23 1 -0.00590747535294283     47.4932832163635     3.68262320234585     29.5447359299452
24 1  0.00425093695881987     1.58474805536682     4.60268795067902      26.988222486781
25 1  0.00607899988180874     3.16976048741487     1.85364748072713     32.1065073418294
26 1 -0.000449796904525079      1.5870234457118    0.936940872330023     34.6802292457936
27 1 -0.00376440666302748  0.00322154878984049     3.67635539649985     34.6875795054981
28 1  0.00753980382663637     1.58565659369906     4.59332106597877     32.1164303542458
29 1  0.00233642276152325     3.17279926669573     1.84809473192559     37.2551274831464
30 1  0.00537515268291491     1.59202055744716    0.931003881892673     39.8288629702548
31 1 0.000807155831544474  0.00925129103571411     3.67229747514855      39.834913019741
32 1 -0.00623115257789264     1.58932257667645     4.58888974061445     37.2614170528152
33 1 -0.00917736277560324     3.17790144324157      1.8428421936128     42.4009210596678
34 1 0.000170093773582523     1.59623112386774    0.924887516530348     44.9753938435644
35 1 -0.00230379196439126   0.0151964721419721     3.66791971738799     44.9824297934219
36 1  0.00280529204283928     1.59517276512433     4.58574950591728     42.4087986265596
37 1 -0.00237163955534937     3.19576821352797     7.31921451746032     1.25322756788407
38 1 -0.00865141192811258     1.60459717464068     6.39523078947595     3.82299806558287
39 1 -0.00772135013666519   0.0740087207247848     9.13792295300709     3.83487195927737
40 1  0.00161903324832193     1.64871189053354     10.0378969139569     1.29556370440902
41 1   0.0139209949204293     3.11259971117174     7.28371479495798     6.44673853035752
42 1  0.00613061185066066     1.57303196285586     6.40460041873543     8.98354410546999
43 1  0.00025872206127278  0.00777635327312375     9.15547491725083     8.97280528876464
44 1 -0.00251193350791372     1.61224071741482     10.0609411431376     6.41324065857698
45 1 -0.00404274269905132     3.17180904275668     7.32919940309397     11.5395430607088
46 1 -0.000935311665024926     1.59085507804181     6.41311265580722      14.116599764148
47 1  0.00450157414810154  0.00820909546680536     9.15571029811534     14.1201838251082
48 1 0.000205504829094226     1.58958587497408     10.0739838280067     11.5478218685799
49 1 0.000191284722184592     3.16838004616704     7.31879981550939     16.6965206759686
50 1  -0.0030185216620683     1.58827177937438      6.3594041780232     19.3068937972262
51 1 -0.00507848259200358   0.0106023583253224     9.13392360480529     19.2689676836492
52 1  0.00734592456027456     1.59066294495776     10.0646189028077     16.6923756736014
53 1  -0.0065942450705876     3.15375018853063     7.27533567371333      21.844219293206
54 1 -0.00691474655170392     1.58474680375958      6.4024742533631      24.421212492825
55 1  0.00617840521025649  0.00350928357466319     9.15084723815135     24.4028955553372
56 1 0.000190192123204023     1.58701391674482      10.050327430898     21.8325231977075
57 1 -0.00227280140728287     3.17286863042678      7.3378895952915     26.9790499164332
58 1 -0.00402335203987616      1.5849230965891     6.42557353271176     29.5514412016589
59 1  0.00415250678247432  0.00078602156256629     9.16486192750102     29.5495047628329
60 1 0.000894754958341867     1.58491772479465      10.075399268743     26.9743196350129
61 1 0.000685292492390389       3.169950472918     7.33631417846317      32.120511699736
62 1 0.000981998289384058     1.58738260413449     6.41907708156374      34.691639817612
63 1 -0.00256264171404915  0.00445076430080809     9.16040151773351     34.6950023359078
64 1  0.00597573196456448     1.58588051900653     10.0768702488765     32.1209730976494
65 1 -0.00352996179573318     3.17274715778522     7.33216461029088     37.2644479968599
66 1 -0.00272836067089609     1.59297759394833     6.41524685972985     39.8389789966552
67 1 -0.000767889865550971   0.0113368237253971     9.15519720276132     39.8445009308025
68 1  0.00520543970426531      1.5899382271773      10.072473913341     37.2682450179564
69 1  -0.0029526377334404     3.17899940449194     7.32907703690671     42.4133523024631
70 1  0.00833293567184904     1.60320717231325      6.4105998009656     44.9910547478805
71 1 -0.00200348581636963   0.0295473711810544     9.15007635221101     45.0070576504485
72 1  -0.0112893380460776     1.59841868265789     10.0667496363234     42.4227981853695
73 1   0.0025580261019869     3.18973950685454     12.8025411831395      1.2514847567788
74 1 -0.00255183936171848     1.64003317448955     11.8529610400781     3.83620456198504
75 1 -0.00117350521177984   0.0275726964750459     14.6215766658428     3.82050896943389
76 1  0.00298029474029493     1.59966046674361     15.5453627668691     1.24419139744744
77 1  0.00333983981957589     3.17907973741602     12.8312725033674     6.40233436949135
78 1  0.00209034884648648     1.59460925529024     11.9043679738576     8.97395510098575
79 1  0.00983978052434668   0.0123594307459521     14.6431682184801     8.96594056621785
80 1  0.00272277308291755     1.59742011692873     15.5574784333235      6.3926294310437
81 1 -0.00364988959399978     3.17386120622064      12.820308535213     11.5478453641566
82 1  0.00301716739459862     1.59114010983896     11.8996882647766     14.1178545375041
83 1  0.00133536741868381  0.00893139676261631     14.6443167774866      14.112468096862
84 1 -0.00455613548087017     1.59304665683433     15.5602742530466     11.5404055039876
85 1 -0.00136653695510544     3.17373911025309     12.8117254432284     16.6868138960834
86 1 -0.00263181917273177     1.59006737448496      11.888430912714     19.2601958939855
87 1 -0.00745231547049647  0.00899179949559875     14.6395962182009     19.2561732115986
88 1 -0.00374717775155508     1.59275825337922     15.5569806915852     16.6839724703864
89 1  0.00910637760838064     3.17001751128026     12.8077184585493     21.8280096797466
90 1  0.00154316852279726     1.58683775548232     11.8967459686086     24.3998018912286
91 1   0.0043663446815689  0.00618288573549648     14.6431472178217     24.3991180324231
92 1  0.00286796462131207     1.59061138630255     15.5556029833338     21.8269086384864
93 1 -0.00274963171019834     3.16942723558583     12.8181761586163      26.971829172649
94 1 -0.00511956255395894     1.58594365336636     11.9058239098762     29.5464671835182
95 1   0.0101291510206397  0.00436069350862179     14.6470671832037     29.5454811819707
96 1 -0.00357881060061377     1.58821384958388     15.5605826484914     26.9715189433002
97 1   0.0049429172336402     3.17012182785549     12.8186871459095     32.1187830032487
98 1  0.00391441125977329       1.588206009408     11.9024803561519     34.6937503426509
99 1 -0.000898387519539004  0.00573259793663694     14.6433824059215     34.6932370293884
100 1 7.88880569312505e-05     1.58810692757328     15.5597621098462     32.1179492127998
101 1  0.00300931560663748     3.17278481345647     12.8143960196836     37.2665718576157
102 1 -0.00790045153780388     1.59313084286001     11.8968158344573     39.8442488655024
103 1 -0.000364400116786338  0.00968403048731883     14.6369294390503     39.8434492137764
104 1 -0.00979144987657702     1.58971384206478     15.5551470510775     37.2660606882396
105 1  -0.0043518140769278      3.1766551830042     12.8095214266078     42.4195539739165
106 1  0.00113523017399916     1.60546588167425     11.8836166082857     45.0073986423763
107 1  0.00558362132605108   0.0176719647311811     14.6277006939866     44.9961095137554
108 1  0.00422025019134509     1.59248123159009     15.5497565515512     42.4166910501214
109 1 -0.000497795942051336     3.17608436461543     18.2949071697225     1.23983893472224
110 1 -0.00325834322630518     1.60010613118551     17.3768276367931     3.81554291718519
111 1 -0.00686697936548903   0.0201444563472872     20.1184477486765     3.81352568430301
112 1  0.00215640798038499     1.59779739658754     21.0355523828606     1.23857056856717
113 1 -0.00554584267953919     3.18238218885063     18.2999440494488     6.38869427908409
114 1 -0.00837634714951929     1.59727915335457     17.3874960376235     8.96426520690359
115 1  0.00228812907863687   0.0173102427554167     20.1263868672961     8.96120127964561
116 1  0.00433866856729894     1.60276805834286     21.0383643048771     6.38677911382867
117 1  0.00321144129439941      3.1808587148572      18.301528624587     11.5364653692578
118 1  0.00136617562532823     1.59526075461256     17.3871742008717     14.1101457344682
119 1  0.00483760290516836    0.014267867879793     20.1293431300202     14.1072797735467
120 1 -0.00426366776626681     1.60043885195256     21.0418892190469     11.5339033355705
121 1  0.00334228707717537     3.17884477936615     18.3008248080234     16.6816871979434
122 1  0.00426960481057998     1.59397487021341     17.3850867908834     19.2541478854556
123 1 -0.00641319218166435   0.0133431320639951     20.1295009260535     19.2524130422062
124 1  0.00550454618269352     1.59833439652309     21.0433076063534     16.6797814702995
125 1 -0.00949895832334013      3.1763142183711     18.3012484002053     21.8255987732261
126 1 -0.00111436793671847      1.5914848394688     17.3875421602357     24.3983254105664
127 1  0.00571522397823575   0.0110969024071384     20.1312226253183     24.3980232541336
128 1 -0.000946549643962823     1.59614424019653     21.0447683262616     21.8249799970897
129 1   0.0064437136699102     3.17396893885842     18.3038224004996     26.9704409659735
130 1 -0.00545997424349052     1.58956805265518     17.3891104037871      29.544006773658
131 1 0.000853182946998594  0.00862916631205539     20.1314073335566     29.5443339515873
132 1  0.00192529792827853     1.59337846043823     21.0460970890391     26.9704970441757
133 1 -0.00339698427801501     3.17309814315476      18.302122763513     32.1160254703274
134 1 -0.00310221180823582     1.58961902078203     17.3858376979792     34.6905944099655
135 1  0.00857701575831539  0.00846650488471447     20.1278243994379     34.6911745136314
136 1 -0.00978970785758806     1.59196292294784     21.0440497875183     32.1167173559814
137 1 -0.00179493232942475     3.17243601876956     18.2980412817673      37.262143116806
138 1  0.00748656954544617     1.59023520455753     17.3801895332462     39.8388356438076
139 1  0.00988440806203983   0.0100428755648043     20.1215785318899     39.8384534944986
140 1  0.00252366001396667     1.59221222846332     21.0388621897353     37.2628978756184
141 1  0.00110524005110779     3.16915023829414     18.2955235598252     42.4110008576173
142 1  0.00290179950553171     1.59276490652344     17.3757405187053     44.9896115900467
143 1  0.00116528475849428   0.0137887537819821     20.1181416474793     44.9878746378849
144 1 0.000338296594795712     1.59217464275773     21.0364280049892     42.4114289473273
145 1 -0.00430094161319639     3.18291717394463     23.7810960132493     1.23652250007233
146 1  0.00155628893350237     1.60537244576057     22.8640364704134     3.81141223674332
147 1 -0.00803819952409662   0.0271812842016461     25.6054342472844     3.81027710634415
148 1 -0.000413420955959927     1.60331233299229     26.5224150830805     1.23525168322199
149 1 -0.00532716488842367     3.18940315786542     23.7814452039531     6.38415368172424
150 1 -0.00233928030565655     1.60577483217301     22.8679800997841     8.95938918604638
151 1 -0.00320006013234917   0.0287079477339396      25.609314234349     8.95844126915786
152 1  0.00627477692693393     1.61102434341152     26.5232203082671     6.38298525639981
153 1  0.00453884906751796      3.1881988274305      23.783977566415      11.532165392843
154 1 -0.00762633827168973     1.60250104181989     22.8708284467383     14.1061628506321
155 1 0.000805050563447888    0.022956532653303     25.6127197904638      14.105631547192
156 1 -0.00108150952633456     1.60912645740274     26.5258633367641     11.5313234734667
157 1 -0.00308462450634258     3.18520781543213     23.7860276468781     16.6785954659095
158 1  0.00718930258032198     1.59999985070631     22.8724507341577     19.2518233219176
159 1  0.00330327374681583   0.0195889360644105     25.6146457871599     19.2517597123726
160 1 -0.00566835532936719     1.60482890870724     26.5281319038151     16.6780979121385
161 1 -0.00246939873520486     3.18234847091448     23.7882313261199     21.8244620041146
162 1  0.00223630112552567     1.59705558003689     22.8740384756961     24.3976974994283
163 1 -0.00268291215947884   0.0161498844313649     25.6162836971102     24.3983166987698
164 1 -0.00209072360650635     1.60131848931088     26.5303696473461     21.8243352107652
165 1  0.00139881263713396     3.17932098923048     23.7889036296858     26.9699482256723
166 1 -0.00444866928391096     1.59456914249307     22.8738775050454     29.5434649153925
167 1 -0.00449650705495446   0.0131977381838749     25.6162133503069     29.5447078490905
168 1 -0.00167489641560336     1.59801092617189     26.5309740487755     26.9702040791685
169 1 -0.00183037772788712     3.17820900870672     23.7859474080426      32.115675921119
170 1  0.00338126249325009      1.5943879890993      22.869416172856     34.6898152706538
171 1   0.0011299548803574    0.013758696212393      25.610825147917     34.6910790288152
172 1 -0.00497252962526872     1.59754375351549      26.527147423193     32.1151307404791
173 1 -0.000296998375869924     3.17915483399559     23.7803422069213     37.2620009471889
174 1 -0.00725843779878124     1.59565078560016     22.8638711016198     39.8369669335025
175 1  0.00224121860621003   0.0156363298154035     25.6002903471167      39.838957960177
176 1 -0.00675325520417341     1.60032028593499     26.5176001012174     37.2624136233701
177 1   0.0059295928926483     3.17770907935642     23.7813048493527     42.4098339156858
178 1 -0.00420040759439573     1.59756016154391     22.8639841457974     44.9855850452618
179 1  0.00448749190577492   0.0178950604699646     25.6038842675172     44.9866600984036
180 1 -0.00457629202236915       1.597141898016     26.5202461449114     42.4106263006898
181 1  0.00043268531691606     3.18475878275011      29.266323971246     1.23129093077516
182 1 -0.00179009091749772     1.60752524998557     28.3508421672141       3.807315736201
183 1  0.00946365431246246    0.022230706432362     31.0925908849387     3.80535732194341
184 1  0.00176845997416953     1.59817917739061     32.0075381497239     1.22574155520933
185 1 -0.00279060144891392     3.19269011548925      29.266935550944     6.37971065714024
186 1 -0.000722042495199626     1.61303476568637         28.352857838     8.95588753609286
187 1  0.00114628757306969   0.0298853933988463     31.0958020636631     8.95479926772993
188 1 -0.00455636592341544     1.60828834709127     32.0087994896789     6.37724371363365
189 1  0.00227794999512118     3.19382470425561     29.2690209349195     11.5289063373181
190 1  0.00362013338567287     1.60953688922329     28.3552637212986     14.1042652680726
191 1  -0.0019350707824294   0.0276087572874036     31.0979032162873      14.103733715954
192 1  0.00226682299559964     1.61150728515279     32.0113533765353     11.5274910458544
193 1 -0.00161118775476566     3.19009105498921     29.2715115123287     16.6767834105979
194 1 -0.000285567778178639     1.60517789821787     28.3576384809402     19.2510442549494
195 1  0.00945326087382841   0.0231265761401361     31.0997164278525     19.2507592589716
196 1 0.000324629136018666     1.60777752867761     32.0135877229192     16.6757698519782
197 1 -0.00257431920084079     3.18588871819039     29.2740881728227     21.8234601077467
198 1 -0.00313609133139776     1.60080083713624     28.3595351646347     24.3971281243245
199 1  0.00422049876713868   0.0184490089480894     31.1019531876954     24.3972483212572
200 1  0.00182889951066992     1.60289125316444      32.016396030266     21.8227531297449
201 1   0.0024721815453901     3.18175738562147     29.2748577755623     26.9687253823923
202 1 -0.000988466471949871     1.59838990935206     28.3584306124269     29.5414334771654
203 1  0.00058595131135839   0.0150040836275138     31.1023273953551     29.5413846549854
204 1  0.00846907408368383     1.59823190341231     32.0184647187018     26.9678840939496
205 1  0.00649177613782252     3.18215945700967     29.2715070079181     32.1127146339066
206 1 -0.00168059910414409     1.60349455420138     28.3493241884443     34.6849762945654
207 1  0.00580300858308733    0.032767662185189     31.0892429993715     34.6669254888165
208 1  0.00519138480855193     1.60071487417216     32.0169569468801     32.1070428508496
209 1  0.00336320057738407     3.18537118631992     29.2635166847295      37.259877540323
210 1 0.000515448529089977     1.59904790208033     28.3453396520666     39.8357864887289
211 1 -0.00440544666606662   0.0036437680427346     31.0786364482311     39.8243659679951
212 1 -0.00619244878382947     1.60880012198514     32.0033223599464     37.2501752778289
213 1  0.00611941257157041     3.17773250166597     29.2649397142684     42.4069011651805
214 1 -0.000596524314437173     1.59826161666435      28.350011815876     44.9827433227134
215 1 -0.00331583245893565  0.00900705616451438     31.0911414277433     44.9767353211765
216 1  0.00849756016356045     1.58124055943163     32.0021620011366     42.3969642138226
217 1 -0.00128951734475464     3.17752515999203     34.7478663815642     1.22091994327517
218 1  0.00456606851391203     1.60190911308735     33.8349404764642     3.79948363814273
219 1 -0.000674085343385431   0.0171344451153575     36.5744365495943     3.79859006778926
220 1  0.00551180525201392     1.59387908228356     37.4869364417289     1.21976007464982
221 1   1.237321703897e-05     3.18862957688323     34.7510301807368     6.37377513697495
222 1  -0.0125632588997881     1.60907975930878     33.8380251313376     8.95074812100852
223 1  0.00892222179962885   0.0236759421044556     36.5788986625193     8.94915858198307
224 1 -0.00348646505466135     1.60355738223549     37.4911716940225     6.37263719482281
225 1  0.00245650622104019     3.19187076895139      34.753748018503     11.5242147848524
226 1 0.000756251659489783     1.60889420591277       33.84032180743     14.1000942740674
227 1  0.00556566970850402   0.0243361448487913     36.5819695671046     14.0980574947868
228 1  0.00374007366175041     1.60705104689859     37.4948491476986     11.5219381260843
229 1  0.00233993822929146     3.18924561409408     34.7565135966922     16.6730667765718
230 1  0.00542633541939187     1.60488848847267     33.8430376795736     19.2478962683695
231 1  0.00103373811413143   0.0212075762159285     36.5852948382822     19.2462840963506
232 1 -0.00265026825956876     1.60483901101137     37.4983687174302       16.67105281498
233 1  -0.0108855466790936     3.18363812139173     34.7610764051772     21.8207056152687
234 1 -0.000637073267667797     1.59914548722798     33.8466560375194     24.3948716921581
235 1 -0.00203638097567247   0.0145902232209654     36.5911943235341     24.3935197635786
236 1 -0.000647539292933846     1.59876249152442     37.5051242666126     21.8190417657478
237 1  0.00936290342072992     3.17755603854003     34.7641189061436     26.9662865223957
238 1  -0.0108049466195049     1.59529137927118     33.8479522297591     29.5376671210824
239 1  0.00455258948603048  0.00893904035063833     36.5934397700032      29.536260750227
240 1 0.000236352752697149     1.59190893890191     37.5101139752971     26.9644515830491
241 1 -0.00671371267923184      3.1771906338428     34.7624981536941     32.1107635961157
242 1 -0.00180850279028528     1.59570429248754     33.8420688528992     34.6791218154051
243 1 -0.00676408996110457  0.00621383721465502       36.59216039037     34.6776626790313
244 1 0.000175270232151078     1.59066463218328     37.5078910160051     32.1083175089472
245 1 -0.00212392023082275     3.16373040337603     34.7519287882123     37.2568807393353
246 1  0.00144616810023353     1.53318012361544      33.823340538668     39.8135728717837
247 1 -0.00409994803754554     47.4601152616374     36.5384020174751     39.8126334212619
248 1  0.00464942667064579     1.58008376701356     37.4919231579439     37.2550199335048
249 1 -0.000811268423336095     3.15060285549872     34.7420538301628     42.3907681618527
250 1  0.00283528131355327     1.58162515252517     33.8333712442845      44.961073892726
251 1 -0.00195092971836118  0.00232823610171662     36.5652634709074     44.9602669662001
252 1  0.00273403797792651      1.5709674357873     37.4753029935355     42.3895308508543
253 1 -0.00266147502499513      3.1786331607934     40.2306823332207     1.22211075931332
254 1 -0.00588591734011695     1.59978022920022     39.3168725697993     3.79680388912606
255 1  -0.0062300878464663   0.0158591920459462     42.0575036077892     3.79862820764178
256 1 0.000600169398207608     1.59658791030725     42.9720630547412     1.22418531677402
257 1  0.00410913839622813     3.18550319613984     40.2338374279249     6.37103876162722
258 1  0.00336824682851062     1.60476082428783     39.3206273745329      8.9462577314509
259 1 -0.00206083317804844   0.0193436360839541     42.0612120459204     8.94587744646107
260 1 0.000794426892898304     1.60111314235745     42.9738846830081     6.37139779725183
261 1  0.00482603354572733     3.18765167029079     40.2372419383707     11.5195182581993
262 1 -0.00850345682019705     1.60462481694293     39.3242155323126     14.0949927085943
263 1 0.000305495789435065   0.0193118682551814     42.0653917173665     14.0934716140214
264 1  0.00283216411076383     1.60242272716165     42.9778878511416      11.518654379767
265 1  0.00531228340120499     3.18442433576084     40.2412119460804     16.6681895307441
266 1  0.00608350426696443     1.59988421353889     39.3294962889729     19.2436916664318
267 1  0.00023028432408124   0.0151620030755017     42.0717452717504     19.2423949386072
268 1  0.00144336374676075     1.59958130094435     42.9819529990016     16.6666335476779
269 1  -0.0019071585737833     3.17609344668636     40.2507892381227     21.8168858001329
270 1  0.00158014164853859     1.59178088315508     39.3389346576026     24.3908930579762
271 1  0.00141348929967181  0.00668249442604407     42.0868282202483     24.3887191151579
272 1 -0.00571467938066283     1.59148530876914     42.9964339289487     21.8155526033328
273 1  0.00181911342745242     3.16977948630936     40.2578663622689     26.9622119889557
274 1  -0.0013936229983762     1.58752782963637      39.339107187059     29.5351155783018
275 1  -0.0055722922232897  0.00150657878465729     42.0836877138591     29.5313836676619
276 1  0.00423229084575993     1.58478652798375     43.0071218264639     26.9571930874569
277 1  0.00126021441058722     3.17038296237685     40.2513112261236     32.1077229275619
278 1  -0.0011881225385678     1.58706072427325      39.332380500686     34.6813194397022
279 1 -0.00695091522141177  0.00323477383628569     42.0769653082188     34.6784251608803
280 1   0.0044135676042348     1.58538741460973     42.9946511214091     32.1030868787841
281 1 -0.00443388584228186     3.16756529445589       40.23815385632     37.2549331821391
282 1 0.000354371207642869     1.57699777963274     39.3087146237021     39.8256016128559
283 1 -0.00185856856106084  0.00443276127018328     42.0626930926981     39.8275177082142
284 1 0.000122808629390701      1.5875380831335     42.9839421914726     37.2525714223887
285 1  0.00434027572838936     3.16719484946111     40.2271386172741      42.397695549783
286 1  0.00472803915549525     1.58974302908284     39.3119019357764     44.9689793680934
287 1 -0.00213492585610239   0.0101428329497788      42.057194265112     44.9739653008436
288 1 -0.00406548553089647     1.59020500254087       42.97364018074      42.399904782758
289 1  0.00104633804151683     3.18082969025874     45.7147220440385     1.22389923123214
290 1 -0.00184591144126933     1.59919913290988     44.8001894445606     3.79822392124868
291 1 -0.00740760828129631   0.0134161723277691      47.539819794267     3.80084788655564
292 1 -0.00691796749423449     1.59662602529151     48.4535897369725     1.22573713183838
293 1  0.00214750612826047     3.18344856892235     45.7170216870019     6.37126179815468
294 1  -0.0037548286214004     1.60089976344363     44.8039495532921     8.94494592387097
295 1 -0.00250496501405001   0.0145252453949511     47.5444349006432     8.94727241334484
296 1 -0.00077162722273749     1.59715469796042     48.4552183646257     6.37430377559113
297 1  -0.0041871900872893     3.18333058053487     45.7211343037213     11.5169659520504
298 1  -0.0018433241269232     1.59948397389868     44.8072937176325     14.0911607174849
299 1 -0.000336396420348771   0.0131484870884226     47.5481547421882     14.0908090005876
300 1 0.000879025584462431     1.59745703944577     48.4620570320558      11.519609011094
301 1   0.0055204587705065       3.179972471527     45.7226567954937     16.6627906383731
302 1  0.00610520576333575       1.593346142482     44.8145646972901     19.2395025756845
303 1  0.00220650000681057  0.00370634894721032     47.5512158488766     19.2341568838203
304 1 0.000365700972923837      1.5939395386364     48.4618345497838     16.6605436228152
305 1  0.00396881826812101     3.16972259047933     45.7415966926914     21.8116277640977
306 1  0.00180731519452192     1.58446076252134     44.8438056850094     24.3832226791827
307 1 -0.00607772503202407   0.0140132744377889     47.6154051727001     24.3695922704664
308 1   0.0022224651920279     1.58619495984786     48.4879408495186     21.7928780495462
309 1  -0.0013537354398824     3.16258173361741     45.7607751779471     26.9469675894573
310 1  0.00915238340268972     1.58339660681359     44.8296995120926      29.524647330991
311 1 -0.00419940490083167  0.00339020170410707     47.5715006469078     29.5162041085547
312 1 -0.00297948314741904     1.58249749770696     48.5315560224379     26.9070172241419
313 1  0.00105906880630112     3.16807408177738      45.736406936135     32.0985051635989
314 1  0.00316565269920125     1.58648373369207     44.8170444371806      34.675978840963
315 1 0.000828202168424983  0.00270777875303994     47.5559525269689     34.6769236800067
316 1 -8.2753979681802e-05     1.58443325079114     48.4744306317212     32.0989308078227
317 1 -0.00170596891896701     3.17170858772697     45.7251135493474     37.2512348532449
318 1   0.0063919134090307     1.59004124568161     44.8062369564975     39.8263670722336
319 1 -0.00770980009210943  0.00778156099620691     47.5483596131297     39.8279241509833
320 1 -0.00420246913821147     1.58863296032322     48.4657445309825     37.2528238885072
321 1 -0.000159314299644055      3.1759985020884     45.7178254933287      42.399145864543
322 1  0.00131211897291919     1.59514450859262     44.8011116146072     44.9736877107013
323 1  0.00161950960972393   0.0122096703677863     47.5427243688863     44.9757380582986
324 1  0.00355268199788241     1.59375917755061     48.4594092263843     42.4010543542858
325 1 -0.00722481684701862     6.35084782073671     1.83832383927546      1.2194635983958
326 1  0.00961497890062909     4.76500455213104      0.9220793289747     3.79728614864543
327 1  0.00224307468624098     3.17319189471217     3.64599335891949      3.7974540766804
328 1 -0.00636297736906292      4.7670200558538     4.56361104639551     1.20710140007837
329 1 -0.00128855555506012     6.34304062009088     1.85241995366295      6.3698087320298
330 1 -0.00659586892086427     4.76166511084421      0.9339060926883     8.94521287049361
331 1 -0.000376706560079353      3.1728731872534     3.67236039097489     8.95278460338022