ITEM: TIMESTEP
0
ITEM: NUMBER OF ATOMS
108
ITEM: BOX BOUNDS pp pp pp
0.0000000000000000e+00 1.0956000000000000e+01
0.0000000000000000e+00 1.0956000000000000e+01
0.0000000000000000e+00 1.0629000000000000e+01
ITEM: ATOMS id type x y z fx fy fz
   1 1    1.9498426099999999    1.6123894800000000    2.2463115000000000    0.2628846756988266    2.3388213754612801    4.0230021188885754
   2 1    3.2310994800000001    7.2917578000000001   10.6101818899999998    2.3689865063666984    0.2616244923569662   -1.3623857058468050
   3 1    5.0867491899999999    5.3743590899999996    2.2430686899999999    0.8922486989931724    1.1139319640599028    0.1988027373761172
   4 1    8.9265713699999996    5.1206595400000001    7.8247845199999997    2.3100654957521578    1.5536100288738750    2.7977024859575432
   5 1    0.2592721000000000    7.0133755899999999    5.3305418199999997   -0.1469146508753376    5.0565074021953853   -1.9806875044331695
   6 1   10.7365987599999997   10.8800927800000000   10.6153213300000004    0.5796876950257031    1.6473822214264064    0.7088123705199070
   7 1    7.1881782400000001    3.5480399000000000    5.1419050200000003   -0.9463800688727707   -2.2875614717547266    0.2330520580126169
   8 1    7.2680072800000000    7.1069656900000000    5.4505338700000001   -1.5967375985000936   -0.2383993400705984   -0.6120448395521461
   9 1    1.6494264599999999    5.2833683000000002    2.6433772400000000   -0.8223652323234956   -0.1666378080039384   -0.8037404210601318
  10 1   10.7283949100000005    3.2646578100000001    5.3122076399999996    3.6539265592385490    2.5085875394062809   -3.0875851629057127
  11 1   10.8235741700000005    3.6351975099999998    0.1936622900000000    0.0577283047243924    0.4079173825433933   -2.5827512925250895
  12 1    1.9354248400000000    5.1519876800000004    7.7933675300000003    0.2547020157772191    1.9760210258020665   -0.8546575150938462
  13 1    8.9461627799999999    9.0473408899999992    8.0078490599999999    0.4932084359067774   -0.5046225822539162    0.2611021014923434
  14 1    1.7098071600000000    1.6894044600000000    7.9303547200000004    0.5037638429947854    0.5629559636499546    2.4586510056825994
  15 1    7.3893707199999996    7.2870110099999996   10.4758578999999994   -2.2515377463969490   -0.4606987780565087    1.1212964220758832
  16 1    8.7307771299999999    9.0393448700000008    2.9513383800000002    1.3012344433041005   -0.7233747509141608   -2.8081026215445251
  17 1    5.0789946400000003    8.9861253300000001    2.4193840299999998    1.7277067477640664    0.0475188928291539    0.6210584272092509
  18 1    5.4426058800000003    9.3071524599999993    7.9839223300000004   -4.8367450338169622   -4.5726864157260918    0.5526358990306619
  19 1   10.9507573300000001   10.7516530699999997    5.3004673799999997   -1.4086682571075411    0.6604687283381608   -2.7896320223250459
  20 1    3.5276752199999999    3.4735595899999998    5.1816768299999998   -0.8413706223361326   -0.3793476040716796   -1.2066443204680022
  21 1   10.9538038699999998    7.2940740100000001   10.3258917399999994   -3.7070763864439842   -2.6855782803583619   -0.7327279724146059
  22 1    1.6456279000000000    9.0987234299999997    7.9318484199999997    2.0234580814354137   -0.6223340401237696   -0.6911171148483108
  23 1    7.2406413799999996    3.7825271200000001    0.0748470800000000    0.6527319452300153   -3.0786431984442171   -1.6446376601270878
  24 1    8.9499556299999998    5.4080370699999998    2.6872656600000000    1.1782169282784420    0.8137865466756680   -0.7669105812960372
  25 1    3.8236803699999999    6.9904107199999999    4.8131646100000003   -1.9707534725071030    0.0658074458637312    2.7028622622662062
  26 1    3.7737331799999998    0.0466739800000000    0.0220746300000000   -2.9687177472913633   -2.3088330647958757   -0.4416544571114056
  27 1    7.1999626299999999    0.0728454600000000    5.2426781499999997    2.2782802246242753   -1.8408100527257860   -1.7792570299001529
  28 1    5.6696258100000003    1.6242438699999999    2.6256736900000002   -1.5858639305196949   -1.8214075588119938    1.2682856315233351
  29 1    5.3494679300000003    1.7250430200000000    7.5813982700000002    1.6918446846473820    0.6530419254415125    2.0282131156554883
  30 1    1.4256022800000001    8.9866387299999992    2.5796010100000002   -1.8635441394802426    3.3569622705043596   -0.7879680796621977
  31 1    3.3299887699999999   10.9341262399999994    5.2506655200000001    3.5415328444862220   -1.4918882032372003   -1.1665418777283865
  32 1    3.7357748000000002    3.6106027200000002   10.2165931000000008   -2.4035708304563599   -1.0791901469970882   -2.1802974240813753
  33 1    7.1817182600000002   10.9535638199999994   10.5472857399999995    3.5428598810433405    1.9476682209250196   -2.0614360057649348
  34 1    9.0363334999999996    1.7914524800000000    2.5222215200000000    0.9294006714183803   -0.3390186767033520    2.3516838870553998
  35 1    5.4428051599999998    5.4758693899999997    7.8838400899999996   -1.8530839885591797   -0.2094879178120350   -1.1463898688413472
  36 1    9.0497654500000007    1.7001676400000001    7.7713846300000000   -1.2888893289232830   -0.2230662733935316    3.1899731743362660
  37 2   10.5057749000000005    9.5845480799999994    1.6476423200000001    0.9801715114407100   -0.2509891308237644   -1.0316200847695260
  38 2    5.0698647899999996    7.1086391100000004    3.3652439699999999    2.9500705166327470   -0.1997826553494722   -2.4579500183032330
  39 2   10.8249983400000005    5.5721666000000001    4.0577155600000001    0.4630492932127087   -2.9408250218390872   -0.9285807546582652
  40 2   10.5201266100000002    1.7316611000000000    4.2294791399999996    1.1154538898639559   -1.9729742270459931   -0.0330230872148063
  41 2    1.7629813400000001   10.8695582599999998    3.8848047999999999    0.0294660627914375    1.3224532228365102   -1.7419555905172976
  42 2    1.7024185500000000    0.0846790300000000    1.1687234900000001   -0.6647662061594601   -1.0969856559715363   -2.9318519145185773
  43 2    2.1226030599999999    3.9810609000000001    0.6740873500000000   -1.9417398778502317   -1.0723942251248941    1.5526768294880968
  44 2    0.4495063800000000    1.9355864400000000    9.7257516200000005   -0.4461186170846729   -0.8936744088928618   -0.2465063053023610
  45 2    1.7441040500000000   10.8285213500000008    8.9739178099999997   -0.2397566173697289    0.3666822726617808   -0.3336828350464369
  46 2    1.7574875700000001   10.4756398799999992    6.2722654799999997   -4.1024262446536479    1.4522774787730450    1.1208308096351018
  47 2   10.9542293999999991    1.8100072300000001    6.7498245399999997    0.7693826198185152   -1.1337930392246314    1.6517281771473997
  48 2    1.8843236500000000    3.3871044800000001    3.3237903400000000   -1.1768506078720433   -0.0700150997773970    0.9615225229488858
  49 2    1.4719650000000000    7.5332583900000003    0.9597057000000000   -0.4823589305699130    0.9363070781566418   -0.2106635193130698
  50 2    1.8063053099999999    7.1928590899999998    8.9430213199999997   -0.2800441213533092    1.6002247240631606    0.0742354121432155
  51 2   10.7286291499999997    2.2867134199999999    1.6239633499999999    4.2061042379976490   -0.4174338307451583    0.3761170622516907
  52 2    3.7478391100000001    5.1082562500000002    6.4553532999999996   -1.7916371299958938    2.7942556345079597    2.1939761576595185
  53 2    3.5104206200000001    1.6528777100000001    6.7340960599999997   -1.4729632002741688    0.0724109859997109    0.5350847045040373
  54 2    5.3909712299999999    3.5057395499999999    8.6978579099999997   -0.4302960744804399    0.9249338236580676   -0.4248539465283777
  55 2   10.8328709900000000    5.2844045199999998    1.4801322500000000    0.0319814347919782    0.0395568342579688    0.1922678915088581
  56 2    2.3622152700000001    7.5195828899999997    5.9504287099999997   -3.9332242066765613    0.1727443143806625    1.4929929378674436
  57 2   10.8529835800000001    8.6150234799999996    6.8946615600000003   -0.0576008762472404    1.5842301707130051    0.5579473894167120
  58 2    3.8762220599999999    1.6630748900000001    4.1044106700000000   -1.0696914146644476   -0.5668669517578273    0.8728901371769258
  59 2    5.8673867599999996   10.6716270499999997    3.3763120500000001    0.7390104717589907    0.4551103422468834    0.2486573157620920
  60 2    5.5116577099999997   10.6540145099999997    0.7522161400000000   -1.6535785166196870   -1.2131164247446722    2.2418184765569924
  61 2    3.9002888900000001    1.6740566400000001    1.6405635100000000   -1.9192336918182566   -0.6481900599380653   -2.3903927444976607
  62 2    3.6148129999999998    1.6211643600000001    9.5406527899999993    0.6313947660469387    1.0186368302864146   -0.8653318272207129
  63 2    5.7888704700000000    0.0107577000000000    8.8401978700000008   -0.8442640474983463    1.8401455819656460    0.2259792535084508
  64 2   10.8968633500000003    9.1563911000000004    9.6441568300000000    0.3922158758696631   -1.5228874090000013   -1.4455192272229644
  65 2    3.4844188500000000    5.0834485799999998    3.7930377300000000    0.8287796044842445    0.8857238937297938    0.9170195017406468
  66 2    5.5925345699999998    3.3697822799999999    3.3712241600000001    0.0523905122032356    4.0327801448904328   -0.1300739281467857
  67 2    5.3253816100000000    4.1550901700000002    0.5425526300000000    0.5431294945937225    1.5254733226823869    2.2671854949125207
  68 2    8.9840330700000006    7.0992439000000003    6.2406166699999996    1.3172502903546714   -0.4337026414653530    1.7411362987984422
  69 2    3.5141731500000000    5.4887050000000004    9.1911944400000003    2.3669772586741828    0.6453928293011343    1.2270283041218411
  70 2    5.3005107200000001    3.7454195800000001    6.0235617599999998    3.1238535173867286   -3.3931498439690095   -0.0688406583711991
  71 2   10.9428808499999999    5.4587485600000001    9.1918897899999994   -0.1048056146448285   -0.5465325252965945    0.7164975305638626
  72 2    9.1598810299999993    0.0837115100000000    6.4382472000000002   -0.4049908626151874   -2.3279769913549844   -1.2134394090268832
  73 2    1.7347139899999999    3.5966836700000000    6.2946254899999996   -0.2948342187954962   -1.3410292627556286   -1.2695062269492614
  74 2    6.6201868800000003    1.9379128400000001    0.9569061200000000    1.1484567432376434   -0.1656447559087755    0.7828087568736783
  75 2    9.0192770899999992    0.7570895100000000    0.8552598300000001   -1.4783039787842251   -2.2003605141227993   -1.5842528653279089
  76 2    7.3258765400000003    8.7171040400000006    4.3839670799999997   -0.4895121240462313    2.8746742953380950   -0.4000652189077286
  77 2    7.5008020100000001    1.9078092600000001    3.9086825300000001   -2.0715922999111158   -2.6337977874949905    1.5836946456527283
  78 2    3.5114363499999999    9.5687969699999993    7.2567654399999997    2.7738499200995048    0.0420955560541233   -0.2537406239490367
  79 2    8.9451281999999992    7.2605082200000002    9.0573037999999997    1.5951596943492983   -0.3520059894297622   -4.3887030196296655
  80 2    7.3484578400000000    1.7218183400000000    9.3133880799999993    0.6250926456732675    0.3935669701999949   -0.2027984193398586
  81 2    7.7142563300000004    9.0940986899999992    9.6450297799999998   -1.6048274597131509    2.8376047072057400   -1.0340909585800251
  82 2    5.8448564000000003    7.2782907999999997    8.6964975100000004    0.5146436323809027   -0.4947934772339684    0.0462586551062175
  83 2    9.0571913199999994    7.2096918800000003    3.6427283600000000   -0.1298184709369606   -1.1267847605394545   -0.2762572527517582
  84 2    5.1491348400000003    7.4112087700000000    6.1715991800000003    2.7085874747340037   -1.4126793859162612    0.6582854960330979
  85 2    7.3006592200000000    8.9426611299999994    1.4384127900000001   -0.5897970472993720    0.7963869393113931    1.4954953978956098
  86 2    9.0891076799999997    7.3007725099999998    0.6677890300000000    3.9996169188825612   -0.7794187163540840    2.7125485344727047
  87 2    7.6362253999999998    5.2474180500000003    9.4663071900000002   -1.4545833125252736    1.1086341842211347   -0.6736011988269679
  88 2    4.0345408599999999    8.9785132099999991    9.6397276099999996   -1.2712320337124514    0.8149386888669051    1.7265977990132770
  89 2    9.3238728500000008   10.8999822999999996    9.0311523099999995    0.0349342896920500    0.5217827029211730   -1.3757876388136994
  90 2    7.2296911899999996    5.1815925399999996    6.8325191099999998   -0.8371858180138956    0.2693371494274224    1.6280174379023005
  91 2    5.4810941900000003    0.4163562700000000    5.9070828000000004   -2.4835603894664477   -0.5906876657479143    0.7509639221429045
  92 2    0.4158410100000000    5.6138053200000000    6.4924396900000003   -1.1540433531067884   -2.4682074930222098    3.1787092102580532
  93 2   10.8613636099999997    9.2070802399999998    4.0367162700000003   -0.0096681870688562   -1.3825487970005532    2.1647902421286185
  94 2    1.5810151100000001    7.3236430500000003    3.4513526899999998    1.1652576322588515   -3.2420757034749861    1.5566899145839406
  95 2    3.9574907100000001    9.0638144399999998    4.2112619899999997   -0.9667757499498544    1.2512498066940774    0.0115914242265839
  96 2    3.2360449099999999    5.9970761100000001    1.5488692500000001    1.1254793821556737   -0.6688042495279322    0.0384702592755647
  97 2    5.2545450400000000    7.1741711099999996    0.8439352700000000   -0.9009555565504195    0.6829704753963536   -0.3946250242787148
  98 2    9.1459865199999992   10.8676504900000008    3.5999253800000002   -2.2970086156952303    0.3832284264289599    0.7897210664793957
  99 2    9.1962395000000008    3.3834953600000000    9.0509243799999997    0.8473245489848835    1.0125925096803505   -0.8109064900430927
 100 2    7.1961840099999996    5.9043847300000003    1.6130177100000000   -0.3980344264434815   -2.3801956085373073    0.6758937099429421
 101 2    8.7533348699999998    3.6848508700000000    1.3186781700000001   -0.1154867784718537    0.0413399080897199   -2.1923413783229186
 102 2    9.0494758799999993    3.5659999700000000    3.5588294199999999    0.4475144757004376    2.8287006770263408    2.3374368185239445
 103 2    7.1367621699999999    5.2613336000000004    4.5414043599999996    0.5408090400684270    4.2379094824442092   -3.5686212681584513
 104 2    3.2418811700000001    9.3051311900000009    1.6329740900000000    2.0039515075529901   -0.5543827661908909   -0.5926532680971243
 105 2    9.1155543699999999    3.4867889600000002    6.2457008399999996   -2.5876103111322384    1.2475098124012598    2.5020917252585333
 106 2    7.2934387799999998    1.7093592799999999    6.7606757899999996   -0.4317964489133877    0.8088457615725422   -1.4214233252096955
 107 2    2.1277929200000001    3.5278868900000000    8.7864617900000006   -0.3050317034494350   -1.6445269408537739   -0.7112472851522572
 108 2    6.9259656700000001    9.2839186199999997    6.8249149100000004    5.0643962304422399    0.3774992159433061   -1.2327141300383886
