384
Lattice="9.27353665 0.0 0.0 0.0 10.70815776 0.0 0.0 0.0 40.96519654" Properties=species:S:1:pos:R:3:forces:R:3 energy=-2886.5298391300003 stress="-0.04887837138136326 -0.003475954272269456 0.0012801032816069414 -0.003475954272269456 -0.04784093743155936 -5.8657053648101773e-05 0.0012801032816069414 -5.8657053648101773e-05 -0.005159932614590302" free_energy=-2891.63088361 pbc="T T T"
Al       0.65259732       1.77876421       0.63606661      -0.01386069      -0.18527040       0.32446028
Al       3.77407903       1.71296258       0.72328151      -0.92139265       0.97903918      -0.41236437
Al       6.83276035       1.67865364       0.71717770       1.24886961       1.30491390      -0.34790172
Al       0.60466241       7.17130679       0.65253462       0.56542339      -0.81745499      -0.00996032
Al       3.75098792       7.13856125       0.66818332      -0.14561964      -0.18500336      -0.25414395
Al       6.83213902       7.02838501       0.65515639       1.07124935       1.10039181       0.34735166
Al       0.61717241       1.80584514       5.67716176       1.07455999      -0.24726020       0.09303953
Al       3.76351647       1.75062317       5.56909557      -0.23742404       0.19019165       0.34503897
Al       6.89863028       1.73513918       5.70628802      -1.03088091       1.14473595      -0.88506095
Al       0.66300223       7.12879541       5.66565054      -0.31150859       0.51117179      -1.45187916
Al       3.70728175       7.16151954       5.57003777       0.75677721      -0.53711479      -0.37792808
Al       6.80366927       7.14524314       5.66532282       0.51915740      -0.74283970      -0.59464374
Al       0.79729231       1.85813308      10.63329510       0.25392872      -0.69312612      -1.19643504
Al       3.89179731       1.77120425      10.60314472       0.96285318      -0.35943829       0.26261556
Al       6.95143380       1.75488502      10.60543877      -0.11240799      -0.03624104       0.18156835
Al       0.79281320       7.22523308      10.57123283      -0.93824617      -0.86984413       1.55055953
Al       3.79258901       7.11627757      10.56615314       1.34811511       0.57041820       0.01894826
Al       6.95656207       7.09980842      10.62424179      -0.16183195       0.17783383      -0.13460802
Al       0.92734439       1.84403043      15.52589142      -0.53064610       0.49298441       0.53336356
Al       4.04124962       1.87464505      15.49762543      -0.88518305      -1.20936046       0.47186083
Al       7.10745178       1.78348651      15.49176741       0.00013389       0.43257703       0.47822545
Al       0.92125168       7.16055580      15.56521801      -0.15365510       0.23205196       0.26752589
Al       3.98708289       7.20057219      15.50844025      -0.78589772      -0.40934062       0.83315711
Al       7.04963128       7.13318575      15.57644247       0.47752270      -0.32866546      -0.35456144
Al       0.69095267       3.57580725       3.16611811      -0.65113877       0.50766568       0.40935922
Al       3.78369569       3.54689522       3.14965010      -0.49675882       0.26767839       0.63784341
Al       6.95191602       3.51598077       3.17447501      -0.72282443       0.43591404       0.38226586
Al       0.61439962       8.94494180       3.11200309       0.23800624      -0.43558638      -0.21736472
Al       3.66537463       8.99593404       3.09889422       0.33708356      -1.47155736      -0.05079835
Al       6.90734741       8.94795079       3.06386898      -1.97797181      -1.09923488       0.97657210
Al       0.79601257       3.53933526       8.12175987      -0.38889281      -0.22907426       0.06838204
Al       3.86468148       3.52430101       8.05469984       0.14036382      -0.10765610       0.00007417
Al       7.00150162       3.59899041       8.15432720      -0.64284888      -0.54785937      -1.55674030
Al       0.67830356       8.91666155       8.14769084       0.73602210      -0.20438792      -0.68711052
Al       3.74442226       8.83910236       8.14621609       0.56982510       0.50774879      -1.81094118
Al       6.86422546       8.96269592       8.10156402      -0.50282578      -1.92398747      -0.33601925
Al       0.93483741       3.64485345      13.00567156      -0.57479008      -0.31267669       0.79271151
Al       4.03381225       3.50178175      13.11762944      -0.46196942       0.53070000      -1.26771557
Al       7.12739916       3.62461503      12.99043251      -0.36476713      -0.34468000       0.78757170
Al       0.83749309       8.97082341      13.11898130      -0.66418369       0.00356995       0.48226915
Al       3.86224254       8.84975698      13.11193528       0.50450073       1.52690119       0.16153644
Al       7.03866069       8.90534303      13.16219958       0.29366655       0.25491008      -1.37977681
Al       0.94381419       3.64096639      18.07974370       0.15886782      -0.58384627      -0.14937725
Al       4.01265003       3.57718860      18.00711241       0.47685590       0.65474326      -0.21122582
Al       7.15482101       3.60268472      17.94742612      -0.33475616      -0.77283401      -0.21916429
Al       0.96260238       8.89331777      18.09121396      -0.67976951       0.82722116       0.16800167
Al       3.99820186       8.91959559      18.05082227      -0.82659526       0.37891839       0.32814901
Al       7.10858315       8.86782164      18.00371230      -0.72885771       0.61530228       0.43880709
Al       2.20199200       4.50503976       0.73417825      -0.53007980      -0.95584053      -0.77504762
Al       5.27675364       4.40148117       0.78669563       0.52159497      -0.13016695      -1.01338048
Al       8.37428180       4.37172320       0.67248467       0.22931044       1.27365999       0.15972597
Al       2.21782193       9.82189708       0.58346729       0.22693436      -0.90475476       1.41800912
Al       5.29454028       9.84705055       0.68284886      -0.05332013      -2.10461794      -0.24683705
Al       8.48901400       9.84642947       0.54606607      -1.05091512      -0.54166496       0.56191150
Al       2.17793645       4.44751554       5.67408937       0.59783047      -0.19071252      -0.82561112
Al       5.30092975       4.43001841       5.60616908       0.31523592      -0.18508078      -0.17309598
Al       8.43165717       4.48840999       5.70690250      -0.81406890       0.16786750      -1.48746952
Al       2.20912335       9.87794358       5.61497659      -0.00441970      -1.05355157       0.22079403
Al       5.27751407       9.77154733       5.55668312       0.49507839       0.25042055      -0.11697187
Al       8.40982727       9.74087916       5.64738006       0.23871244       1.18550239      -0.22306901
Al       2.42163572       4.52203361      10.51658526      -0.82212980      -1.14875394       0.98176866
Al       5.47849015       4.35902332      10.58905269      -1.23423496       1.34137730      -0.32926181
Al       8.59600279       4.51526605      10.51908413      -1.09511800       0.09046055       0.99750961
Al       2.33513217       9.83969404      10.56373620       0.29494382       0.43389561       0.64457956
Al       5.49964309       9.69712563      10.68187982      -1.56172897       1.18232984      -1.06645205
Al       8.47431544       9.76619325      10.63935795       0.43089880       0.74130737      -0.51640104
Al       2.48302653       4.50978347      15.51298738      -0.89209999       0.20326178       0.05838273
Al       5.57384993       4.48671810      15.50581847      -0.73516190       0.35831199       1.15274976
Al       8.59657775       4.51341354      15.62494526       1.44754623      -0.35451519      -1.13818884
Al       2.32371645       9.87020158      15.65808611       1.31134603       0.80176028      -0.11689955
Al       5.48220884       9.84593690      15.55567312      -0.10821858      -0.79319174       0.32079365
Al       8.57907858       9.88981893      15.58639701      -0.21508179      -1.19161650      -0.16005133
Al       2.08639737       0.90198025       3.11929489       1.45284091       0.04821690       0.42717928
Al       5.28852175       0.88384063       3.12924943      -0.34906544      -0.23486684       0.55441169
Al       8.36232821       0.82357512       3.13150252       0.57623184       1.64314760       1.36308774
Al       2.12885162       6.20715498       3.15870341      -0.26451910       0.73372238       0.26088041
Al       5.33887706       6.19178877       3.16968208      -1.40363421       1.17206744       0.05691327
Al       8.28140733       6.28034523       3.17537624       1.36232590      -0.74293301       0.18687272
Al       2.29872426       0.86735007       8.12024415       0.02763604      -0.39874179      -0.00279060
Al       5.38940856       0.81268493       8.09820488      -0.62276756      -0.11832928       0.02799679
Al       8.45766017       0.80844449       8.18148712      -0.23895999       0.65156475       0.61207460
Al       2.28808752       6.20104062       8.07141364      -0.30480456       0.71865551      -0.04297804
Al       5.38411337       6.22360271       8.15305728      -0.41809754      -0.24632654      -1.47150820
Al       8.48147461       6.30936434       8.13081317       0.00551134      -0.40775907      -0.14488363
Al       2.39409332       0.88027482      13.04663676       0.18386097      -0.02404271       0.85827527
Al       5.53861976       0.78260571      13.13069734      -0.03822537       1.55464462      -0.78901664
Al       8.66765941       0.96886341      13.05999141      -1.53160381      -0.68623876      -0.66984463
Al       2.40406237       6.23364696      12.99952678      -1.16219245      -0.07536527       0.78013121
Al       5.48055815       6.27137180      13.05855763       0.06334402      -0.23790509      -0.50320305
Al       8.62236745       6.25240765      13.14437972      -0.70060364       0.71123338      -0.11761734
Al       2.39053228       0.99426316      18.02685763       1.06623847      -0.84035400      -0.01582539
Al       5.47723823       0.92229363      17.97520052       0.40486581      -0.65933361       0.12747334
Al       8.65012315       0.87891488      18.09694908      -0.35856301      -0.63816192      -0.23580786
Al       2.44246408       6.29158880      18.06544685      -0.56758975      -0.62912496       0.26166780
Al       5.48615937       6.30603410      18.00576056       0.63888125      -1.21711358       0.24873342
Al       8.62870128       6.27239978      18.07830992       0.00526783       0.44713742       0.34783414
Ga       0.94261791       1.79587585      20.54670880       0.48236931       0.34281319       0.91904207
Ga       3.98219574       1.73142344      20.60213471      -0.00402883       0.89855328      -0.16835087
Ga       7.12155683       1.80982858      20.48292599      -0.94758684       0.75936582      -0.11830593
Ga       0.83367240       7.17339488      20.76071099      -0.14716883      -0.13660814      -0.84926065
Ga       3.86824252       7.16860834      20.73506678       1.01398491       0.06395776      -0.49859358
Ga       6.91459931       7.07645393      20.64420597       1.30150334       0.15574684       0.43042987
Ga       0.82472343       1.81135984      25.88721858      -1.32473804       0.01576845       0.03633090
Ga       3.92151899       1.89658607      25.81516080       0.34943090      -0.82289250       0.50885798
Ga       7.04017227       1.83572090      25.79242512      -0.33273650       0.37753691      -0.25898968
Ga       0.71075167       7.20291727      25.82060917       0.59226824       0.92186180       1.29799335
Ga       3.73866339       7.18860047      25.88836561       0.27190221      -0.35157711       0.01883750
Ga       6.91505372       7.14745973      25.86055024       0.11859630       0.18910028      -0.17643209
Ga       0.68667757       1.74917757      31.26639950       1.11325679       0.43311210      -1.07626530
Ga       3.86418999       1.93098067      31.30191633       0.15288522      -0.59808916      -0.45414612
Ga       6.91432111       1.72389561      31.01831427       0.18892497       0.34863735       1.09667199
Ga       0.65054787       7.15898170      31.19122837       1.41492409       0.20236705      -0.83858876
Ga       3.81503097       7.20808931      31.23047303      -0.32440951      -1.13110262      -1.28920362
Ga       6.86121156       7.24353332      31.12621660       0.29515947      -0.08245125      -0.44903225
Ga       0.73460321       1.68034553      36.41748621      -0.63546250       0.21309693      -0.10092180
Ga       3.71487677       1.85426743      36.46435040       2.29560497       0.51015358       0.16147863
Ga       6.80499538       1.80981787      36.54210234       1.27993018      -0.81861951      -0.87785888
Ga       0.71268057       7.02555806      36.45374041       0.52470666       0.70628493      -0.13033321
Ga       3.88376642       7.17919870      36.39274323      -1.73129998      -1.40151912       0.18697045
Ga       6.89509706       7.06760899      36.39856029      -0.38609207       1.78125681       0.34197804
Ga       0.90003383       3.41081595      23.28289718       0.14182770      -0.12456954      -0.43486129
Ga       3.96370431       3.51966437      23.23574623       0.31104088       0.75775446      -0.71343375
Ga       7.10032043       3.62619984      23.27343421      -1.92090127      -0.92935224      -0.04458068
Ga       0.80001873       8.92007745      23.34762219      -0.78205294       0.41689070      -1.33999796
Ga       3.86645273       8.87375396      23.18970135       0.81440389       0.52891289       0.19044506
Ga       7.02131917       8.96298504      23.24922378      -0.17427503      -0.72510862       0.31396551
Ga       0.70616127       3.57501484      28.46864044       0.07528205      -0.51150658       0.07084148
Ga       3.85946048       3.56233638      28.56814490       0.79325615       0.05182436      -0.34208571
Ga       7.03169626       3.65664313      28.49547264      -1.76087154      -1.05379338      -0.60582453
Ga       0.80775286       8.97587766      28.47781664       0.42421614       0.13758559       0.21539769
Ga       3.89805694       8.92019524      28.49047489      -0.83197031       0.94167680       0.24061521
Ga       6.96628073       8.91242112      28.40420219       0.50127835       1.08657710       0.67801891
Ga       0.88898904       3.56034467      33.85789880      -1.74059739      -0.55886142      -0.40531011
Ga       3.89162111       3.70943435      33.76429333      -0.03428481      -0.47040783       0.66622682
Ga       7.02828360       3.56590220      33.79104360      -0.46632950      -0.62399057      -0.34444560
Ga       0.70502062       8.82055583      33.77699254       0.41362878       1.45373532       0.73723843
Ga       3.76643764       8.96247105      33.72623666       0.52154106       0.65984901       0.13513293
Ga       6.81616072       8.94717980      33.84945997       0.52462560      -0.07373206      -0.33566100
Ga       0.71239309       3.41218659      39.09554497      -0.31703249       1.24585782      -0.03307377
Ga       3.73432338       3.55260267      39.17112576       1.35688635       0.20341429      -0.93757361
Ga       6.89070141       3.57581795      39.10726102       0.14298525      -0.68441167      -0.08686992
Ga       0.85199691       8.90898380      39.07960951      -1.67853559      -1.41321447      -1.01352698
Ga       3.85921010       8.88595055      39.00013703       0.35238376       0.13309960       0.47256961
Ga       6.97473820       8.82597416      39.16850398      -0.03776626       0.30800823      -1.00771406
Ga       2.56249147       4.50856274      20.58386424      -0.44345424      -0.22364195       1.04354344
Ga       5.54318234       4.50297308      20.62220766       0.94295794      -0.15021000      -1.28793548
Ga       8.70394676       4.41750057      20.60078286      -1.24793471       0.94090983      -0.36496805
Ga       2.38826026       9.82743320      20.62314986      -0.42520366       0.09087918      -0.74535524
Ga       5.51077133       9.83148088      20.56096469      -0.05448743      -0.49829318       0.10221498
Ga       8.51719627       9.72186147      20.52778288       0.44605849       0.11438401       0.44594133
Ga       2.46707605       4.38512981      25.91872082      -0.12097578       1.24586676       0.06652808
Ga       5.40570216       4.55423304      26.03375109       2.61356773      -0.05043483      -1.44126549
Ga       8.67863927       4.62859048      25.77014005      -1.07139051      -1.19008339       0.78965999
Ga       2.40585216       9.96258086      25.92384147       0.44547781      -1.49562498       0.39399906
Ga       5.44377003       9.87114390      25.75604802       0.07633481      -0.58088790       0.40956942
Ga       8.52482840       9.95859742      25.82687685       0.29500033      -0.73951320       0.40362947
Ga       2.24003205       4.47679164      31.05206959       0.65299752      -0.67499654       0.31195746
Ga       5.50142361       4.53113554      31.04703088      -0.58216523      -1.00329652       0.31113508
Ga       8.52051620       4.45480779      31.20519750      -0.46507729       0.38596161      -1.27898094
Ga       2.33027284       9.80436783      31.14612569      -0.68201562       0.60969511       0.33341064
Ga       5.36244111       9.94282431      31.10962570       0.41570069      -0.38677631       0.74407145
Ga       8.47014235       9.72083349      31.18459201      -0.01183546       0.75659793      -1.35015423
Ga       2.22810628       4.44636976      36.49884309       0.59779130       0.32935661      -0.06759970
Ga       5.37640706       4.53744264      36.46824209      -0.59621310      -1.18473865      -0.99873617
Ga       8.44035575       4.38870633      36.42068150       0.22127171       0.69970365      -0.59205372
Ga       2.37091875       9.75172653      36.50171066      -0.50185681      -0.49930193      -2.05596492
Ga       5.45400802       9.80975403      36.49101874      -0.32887868       0.80045720      -0.61166748
Ga       8.58350206       9.72547012      36.43084087      -0.50552683       0.91149029       0.68897739
Ga       2.40400673       0.78122436      23.26651110      -0.79263830       0.90059896       0.23169577
Ga       5.45057681       0.85124500      23.13202236       0.40409878       1.18693924       0.05400431
Ga       8.52358574       0.94710443      22.92678672      -0.44370356      -0.78215314       1.50480433
Ga       2.22029797       6.11673529      23.37937021       0.62063929       0.07042665      -1.07549582
Ga       5.38923236       6.25461353      23.34721253      -0.61151889      -0.51698156       0.01109294
Ga       8.47251637       6.15351781      23.13579115      -0.57972449       0.36015320       0.42553952
Ga       2.35256642       0.99848217      28.76051747       0.18301417      -0.39228074      -2.47843227
Ga       5.43321675       0.86112863      28.41792553      -0.54857155       1.61636324       0.27912232
Ga       8.49767548       0.92414614      28.57170887      -0.12661485      -0.85488442      -0.84829814
Ga       2.24844315       6.16104565      28.52959665       0.20473613       1.83417861       0.24989429
Ga       5.37747352       6.29970558      28.52091203      -0.24622086       0.66136370      -0.50786979
Ga       8.49139730       6.29999470      28.48392046       0.27985559       0.29190569       0.51050818
Ga       2.26121281       0.93009987      33.87244145       0.34405008      -0.60068365      -0.82246667
Ga       5.39268212       0.95873349      33.86502675      -0.65167756       0.37543422      -0.19926400
Ga       8.42797558       0.78664269      33.69293195      -0.72723362       0.50398622       1.20010372
Ga       2.23137984       6.20167240      33.72914519      -0.21938136      -0.57258579       0.70317081
Ga       5.34141801       6.26914450      33.69842129       0.07867453      -0.66456802       0.35009675
Ga       8.35686610       6.26769890      33.75741117       0.72530249      -0.84659915       0.68596375
Ga       2.26593304       0.88466516      39.12286876      -0.57244598      -0.21701551      -0.62589987
Ga       5.29846299       0.86565818      39.19181318       0.00963860       0.32319684      -1.47752828
Ga       8.38380572       0.84535551      38.99899000      -0.13946408       0.15232681      -0.48151823
Ga       2.23107381       6.21054946      39.15559995      -0.34287928      -0.67729327      -0.77223398
Ga       5.31658348       6.17696868      39.10672847       0.44381838       0.28611055      -0.14082414
Ga       8.37783357       6.15939659      38.97899899       0.84621847      -0.78796979       1.01644285
N        0.62914455       1.83993992       2.55712950      -0.79800231      -0.90055162      -0.87740569
N        3.74166802       1.77069026       2.56921423      -0.38977862      -0.19252848      -0.07952611
N        6.83211120       1.72177539       2.61484946       0.45761978       0.55698024      -1.31583216
N        0.54406912       7.14046730       2.53586856       0.76172556       0.34173887       0.01759302
N        3.61985084       7.07811370       2.50342413       1.67810339       1.06074605       0.99200640
N        6.81169088       7.12392319       2.54791233      -0.44819110       0.58414049      -0.62177439
N        0.69497738       1.69631140       7.60731893       0.56500844       1.05526285      -0.93889193
N        3.82872798       1.74521555       7.48884758       0.06329859      -0.39321312      -0.42626054
N        6.93089292       1.74601866       7.57303106       0.13959132       0.15924902      -0.11333545
N        0.76017035       7.15004039       7.48626677      -0.52854892       0.02059385       1.00327399
N        3.76622435       7.10930656       7.41199687       0.86414603      -0.31296884       1.58002030
N        6.91829018       7.09344778       7.50101424      -0.33211181       0.72871156       0.70938811
N        0.86722405       1.84502629      12.44539057       0.79561594       0.11472789       0.62980313
N        3.99209060       1.68772345      12.53182713      -0.12937194       0.96360585      -0.71784660
N        7.02795902       1.79664683      12.48869078       0.21659041       0.25193923       0.20511212
N        0.79659680       7.21145168      12.56451736       1.06444642      -0.51816292      -1.60747919
N        3.86745427       7.13327142      12.44637373       1.37849026       0.10156026      -0.40369137
N        7.04939017       7.16595271      12.48086643      -0.31326030      -0.49740247       0.29089887
N        0.86065839       1.81567523      17.47907102      -0.24006732       0.85518617      -0.77755651
N        3.95382799       1.84514408      17.36207442       0.28848527      -0.42723301       0.40035599
N        7.09675012       1.70229726      17.38964400       0.16921144       1.02742360       0.05734285
N        0.90524555       7.18606263      17.47345879       0.18928192      -1.09667579      -0.58949662
N        3.94558382       7.13265034      17.46874780       0.23905936       0.75971781      -1.47014253
N        7.06852147       7.11681298      17.40586622       0.02830221      -0.17115173       0.54632745
N        0.64172874       3.53278187       0.07201682       0.74372553       0.19439581       0.31258086
N        3.71466348       3.55244205       0.12224015       0.50210414      -0.40942845       0.85042320
N        6.83773097       3.48696166       0.09581759      -0.47951180       0.20178505       0.63331169
N        0.75034967       8.92962913       0.00929910      -1.08496708      -0.43513660       0.79453034
N        3.68559094       8.91120039      40.93992101       1.87254197      -0.02789511       1.04103671
N        6.88611101       8.88067143       0.12830300      -0.24538729       0.10649773       0.21549049
N        0.64043044       3.58503768       5.05682579       0.49794381      -0.45865699       0.12344386
N        3.70709628       3.56287179       5.03249246       0.50725616      -0.30114638      -0.01384844
N        6.89075705       3.60480494       5.02069449       0.04637816      -1.18347097       1.03623723
N        0.71237454       8.99467048       4.94781740      -0.87155223      -1.21420220       1.16325991
N        3.70958158       8.95557500       4.95326577       0.17220984      -0.43274159       0.33292040
N        6.89187915       8.88541515       5.01123153      -0.54307903       0.57064500      -0.66467776
N        0.80020420       3.62320155       9.98702816       0.93664460      -0.41191667      -0.15397381
N        3.86852073       3.52775974       9.92377790       0.84687540       0.30694265       0.61101959
N        6.97196541       3.54698088       9.96638170       1.22951415       0.06426107       0.80945213
N        0.82249779       8.94599119       9.98981379      -1.16202749       0.50102252       0.04288063
N        3.83581296       8.92669509       9.93938564       0.71603932      -0.62568551       1.66260955
N        6.93940602       8.84911449       9.93389630       0.68728011       0.38287365       1.07620350
N        0.93041393       3.63846068      14.89248755      -0.69202095      -0.28254464       0.51433168
N        3.99205351       3.62326580      14.93992525       0.89682183      -0.04501402      -0.01668927
N        7.08999898       3.64148038      14.93832761       0.45562606      -0.97716887      -0.43265446
N        0.85108810       8.99130812      15.04946618      -0.36147713      -0.60800360      -1.27638303
N        3.88966439       9.01590476      15.01091793       0.14632618      -0.87050294      -0.72366900
N        6.97341208       8.85178082      14.94881470       0.96536612       1.66984905       1.22766181
N        2.21657000       4.45604994       2.57658797       0.08692415      -0.41532797       0.00956313
N        5.34748290       4.44280395       2.64663845      -0.00417202      -0.96775887      -0.87630448
N        8.41679169       4.50220210       2.58248696      -0.02836112      -0.72695726      -0.79280294
N        2.13312672       9.86239534       2.49969629       0.12213821      -0.27194226      -0.65919105
N        5.26871348       9.81215266       2.56130795       0.20782284      -0.16498738      -0.57341903
N        8.33281055       9.85504954       2.48011493       1.65867087      -0.40917915      -0.82021703
N        2.30598544       4.44355352       7.50867473      -0.03215054      -0.50274493       0.54209343
N        5.39033591       4.40019619       7.45746824       0.47803870       0.66941534       1.07609139
N        8.57613887       4.51390611       7.51744129      -0.91306687      -0.54289739       1.26390185
N        2.22133660       9.74797867       7.49450078       0.18760345       0.99246994       0.29411939
N        5.31173342       9.67909309       7.41740428      -0.19828640       1.38322260       0.76649787
N        8.39656611       9.74976693       7.54763264       0.78947260       0.66335531      -0.42668925
N        2.48362931       4.44786891      12.44313748       0.38154992       0.19931544      -0.78769408
N        5.52712058       4.46706863      12.43494444      -0.07186260      -0.11701263       0.54402368
N        8.65979545       4.56866763      12.43072503      -0.35428248      -1.26449075      -0.39461070
N        2.35527429       9.78088484      12.47676991       0.41133163       0.71499204      -0.45102453
N        5.50258280       9.78656016      12.52138101      -0.65997555      -1.38008256      -0.00188796
N        8.54551766       9.88120957      12.46366105       0.20046949      -0.83843820       1.10780583
N        2.46604669       4.48936302      17.37555197       0.19300126       0.33014756       0.99739694
N        5.60942322       4.46155393      17.45596665      -1.01304172       0.66575824      -1.48858601
N        8.71506573       4.52059871      17.45555700      -0.53196234      -0.33858379       0.01126241
N        2.42218286       9.90757305      17.53855249       0.38173528      -0.87395161      -0.79262981
N        5.49634171       9.77102263      17.40816027       0.83508761       0.69153650       0.43897575
N        8.67616324       9.73762388      17.43142850      -0.74012657       1.26908179       0.77840018
N        2.20219602       0.82066250       0.07803870       0.28733496       1.88381993       0.16637708
N        5.32185085       0.87071243       0.13108863      -0.79049340       0.01046930       0.19411166
N        8.39495251       0.89652980      40.90903326       0.02718375      -0.08293444       1.88840179
N        2.19448044       6.23274747       0.10339616      -0.04897692       0.51440514       0.23103991
N        5.33261742       6.16566086       0.12404262      -1.23000835       0.11332884      -0.49681100
N        8.41080099       6.21021751       0.01831144      -0.64981444      -0.54068594       0.05854867
N        2.16143883       0.87247928       4.98784040       0.20284599       1.31566886       0.45191437
N        5.30958196       0.88040331       4.96772649       0.35370335      -0.14543727       1.22713646
N        8.40980872       0.93842011       5.07866024      -0.19954258      -1.90609890      -0.86605799
N        2.17393956       6.19863128       5.07145037      -0.06338489       0.60794439      -0.78627874
N        5.32401158       6.18577079       5.02319336      -0.93768963       1.28174207       0.11795359
N        8.34862193       6.24432299       5.02749471       0.63198901       0.47515265       0.72281766
N        2.38536692       0.94441668      10.00255397      -1.31634553      -0.70802501       0.05236662
N        5.44223990       0.79311041       9.98448832      -0.18252153       0.29535455       0.34849669
N        8.50906338       0.91616856      10.13097986       0.48516196      -0.99384514      -1.61428454
N        2.24848952       6.28150172       9.98567631       0.86533222      -0.34301407      -0.64795709
N        5.41134975       6.21233772       9.99501637      -0.63058785      -0.15963755       0.51697243
N        8.49575586       6.30114048      10.02361008       0.67626530      -0.10512278      -0.85734378