LAMMPS (29 Aug 2024)
OMP_NUM_THREADS environment is not set. Defaulting to 1 thread. (src/comm.cpp:98)
  using 1 OpenMP thread(s) per MPI task
atom_modify map yes
region cell block 0 6 0 6 0 6
create_box 1 cell
Created orthogonal box = (0 0 0) to (6 6 6)
  1 by 1 by 1 MPI processor grid
lattice sc 1
Lattice spacing in x,y,z = 1 1 1
create_atoms 1 region cell
Created 216 atoms
  using lattice units in orthogonal box = (0 0 0) to (6 6 6)
  create_atoms CPU = 0.000 seconds
mass 1 1

compute pos all property/atom x y z
compute bin3d all chunk/atom bin/3d x lower 3.0 y lower 3.0 z lower 3.0 compress yes units box
compute prop3 all property/chunk bin3d id count
Total wall time: 16:09:03
