ITEM: TIMESTEP
0
ITEM: NUMBER OF ATOMS
108
ITEM: BOX BOUNDS pp pp pp
0.0000000000000000e+00 1.0956000000000000e+01
0.0000000000000000e+00 1.0956000000000000e+01
0.0000000000000000e+00 1.0629000000000000e+01
ITEM: ATOMS id type x y z fx fy fz
   1 1    1.9498426099999999    1.6123894800000000    2.2463115000000000    0.2628846757782565    2.3388213753918312    4.0230021187802665
   2 1    3.2310994800000001    7.2917578000000001   10.6101818899999998    2.3689865064323121    0.2616244923698751   -1.3623857058287046
   3 1    5.0867491899999999    5.3743590899999996    2.2430686899999999    0.8922486988875510    1.1139319641219840    0.1988027373605514
   4 1    8.9265713699999996    5.1206595400000001    7.8247845199999997    2.3100654959942313    1.5536100289419066    2.7977024859330650
   5 1    0.2592721000000000    7.0133755899999999    5.3305418199999997   -0.1469146508170400    5.0565074019968019   -1.9806875045440349
   6 1   10.7365987599999997   10.8800927800000000   10.6153213300000004    0.5796876950367764    1.6473822214812675    0.7088123705856676
   7 1    7.1881782400000001    3.5480399000000000    5.1419050200000003   -0.9463800687855835   -2.2875614718666419    0.2330520579513673
   8 1    7.2680072800000000    7.1069656900000000    5.4505338700000001   -1.5967375984009180   -0.2383993399468375   -0.6120448395670612
   9 1    1.6494264599999999    5.2833683000000002    2.6433772400000000   -0.8223652323056430   -0.1666378080323580   -0.8037404208668570
  10 1   10.7283949100000005    3.2646578100000001    5.3122076399999996    3.6539265591341015    2.5085875392603389   -3.0875851628906479
  11 1   10.8235741700000005    3.6351975099999998    0.1936622900000000    0.0577283047820767    0.4079173826622386   -2.5827512927971741
  12 1    1.9354248400000000    5.1519876800000004    7.7933675300000003    0.2547020156592037    1.9760210257040056   -0.8546575151745289
  13 1    8.9461627799999999    9.0473408899999992    8.0078490599999999    0.4932084358412449   -0.5046225821153602    0.2611021015008237
  14 1    1.7098071600000000    1.6894044600000000    7.9303547200000004    0.5037638430119795    0.5629559637265380    2.4586510055803714
  15 1    7.3893707199999996    7.2870110099999996   10.4758578999999994   -2.2515377463966231   -0.4606987779858890    1.1212964221087818
  16 1    8.7307771299999999    9.0393448700000008    2.9513383800000002    1.3012344433262264   -0.7233747509051333   -2.8081026215557254
  17 1    5.0789946400000003    8.9861253300000001    2.4193840299999998    1.7277067474455075    0.0475188929451055    0.6210584274984149
  18 1    5.4426058800000003    9.3071524599999993    7.9839223300000004   -4.8367450337142639   -4.5726864156282137    0.5526358990178880
  19 1   10.9507573300000001   10.7516530699999997    5.3004673799999997   -1.4086682570679325    0.6604687283219373   -2.7896320224186359
  20 1    3.5276752199999999    3.4735595899999998    5.1816768299999998   -0.8413706225219330   -0.3793476040660674   -1.2066443204903721
  21 1   10.9538038699999998    7.2940740100000001   10.3258917399999994   -3.7070763864233345   -2.6855782802634187   -0.7327279723512310
  22 1    1.6456279000000000    9.0987234299999997    7.9318484199999997    2.0234580814551784   -0.6223340401611284   -0.6911171148693687
  23 1    7.2406413799999996    3.7825271200000001    0.0748470800000000    0.6527319451928290   -3.0786431985058882   -1.6446376600172103
  24 1    8.9499556299999998    5.4080370699999998    2.6872656600000000    1.1782169283370316    0.8137865466682642   -0.7669105813102306
  25 1    3.8236803699999999    6.9904107199999999    4.8131646100000003   -1.9707534725870155    0.0658074458791203    2.7028622621320610
  26 1    3.7737331799999998    0.0466739800000000    0.0220746300000000   -2.9687177474225934   -2.3088330647967745   -0.4416544572327793
  27 1    7.1999626299999999    0.0728454600000000    5.2426781499999997    2.2782802246755658   -1.8408100527142013   -1.7792570298498189
  28 1    5.6696258100000003    1.6242438699999999    2.6256736900000002   -1.5858639305179925   -1.8214075589273120    1.2682856314868123
  29 1    5.3494679300000003    1.7250430200000000    7.5813982700000002    1.6918446845833892    0.6530419253524382    2.0282131155992751
  30 1    1.4256022800000001    8.9866387299999992    2.5796010100000002   -1.8635441395150754    3.3569622704804720   -0.7879680796803575
  31 1    3.3299887699999999   10.9341262399999994    5.2506655200000001    3.5415328443910674   -1.4918882032284484   -1.1665418778384871
  32 1    3.7357748000000002    3.6106027200000002   10.2165931000000008   -2.4035708304694725   -1.0791901470752070   -2.1802974241476210
  33 1    7.1817182600000002   10.9535638199999994   10.5472857399999995    3.5428598812169891    1.9476682208883949   -2.0614360057845094
  34 1    9.0363334999999996    1.7914524800000000    2.5222215200000000    0.9294006713967713   -0.3390186766745986    2.3516838871088042
  35 1    5.4428051599999998    5.4758693899999997    7.8838400899999996   -1.8530839886399224   -0.2094879177741939   -1.1463898688368352
  36 1    9.0497654500000007    1.7001676400000001    7.7713846300000000   -1.2888893288971561   -0.2230662735212223    3.1899731743307096
  37 2   10.5057749000000005    9.5845480799999994    1.6476423200000001    0.9801715114287100   -0.2509891307945811   -1.0316200847456851
  38 2    5.0698647899999996    7.1086391100000004    3.3652439699999999    2.9500705166628856   -0.1997826553177048   -2.4579500184426157
  39 2   10.8249983400000005    5.5721666000000001    4.0577155600000001    0.4630492931979093   -2.9408250217836223   -0.9285807546297735
  40 2   10.5201266100000002    1.7316611000000000    4.2294791399999996    1.1154538898174247   -1.9729742270395088   -0.0330230870457331
  41 2    1.7629813400000001   10.8695582599999998    3.8848047999999999    0.0294660628548808    1.3224532228636381   -1.7419555905081867
  42 2    1.7024185500000000    0.0846790300000000    1.1687234900000001   -0.6647662060947661   -1.0969856558665643   -2.9318519143876145
  43 2    2.1226030599999999    3.9810609000000001    0.6740873500000000   -1.9417398777004273   -1.0723942251716356    1.5526768293825348
  44 2    0.4495063800000000    1.9355864400000000    9.7257516200000005   -0.4461186171406837   -0.8936744090283519   -0.2465063054544842
  45 2    1.7441040500000000   10.8285213500000008    8.9739178099999997   -0.2397566172883796    0.3666822726863997   -0.3336828349670184
  46 2    1.7574875700000001   10.4756398799999992    6.2722654799999997   -4.1024262446911592    1.4522774788499309    1.1208308095291439
  47 2   10.9542293999999991    1.8100072300000001    6.7498245399999997    0.7693826197477425   -1.1337930391553446    1.6517281770972341
  48 2    1.8843236500000000    3.3871044800000001    3.3237903400000000   -1.1768506078418628   -0.0700150997622174    0.9615225227920603
  49 2    1.4719650000000000    7.5332583900000003    0.9597057000000000   -0.4823589307153124    0.9363070782279619   -0.2106635193998694
  50 2    1.8063053099999999    7.1928590899999998    8.9430213199999997   -0.2800441213727560    1.6002247239718466    0.0742354120878165
  51 2   10.7286291499999997    2.2867134199999999    1.6239633499999999    4.2061042379590381   -0.4174338309772436    0.3761170624225387
  52 2    3.7478391100000001    5.1082562500000002    6.4553532999999996   -1.7916371300400438    2.7942556345237124    2.1939761577097525
  53 2    3.5104206200000001    1.6528777100000001    6.7340960599999997   -1.4729632001907520    0.0724109859908728    0.5350847045321430
  54 2    5.3909712299999999    3.5057395499999999    8.6978579099999997   -0.4302960745728477    0.9249338235940349   -0.4248539465508832
  55 2   10.8328709900000000    5.2844045199999998    1.4801322500000000    0.0319814348469819    0.0395568344296077    0.1922678916669139
  56 2    2.3622152700000001    7.5195828899999997    5.9504287099999997   -3.9332242066799581    0.1727443143825809    1.4929929379222184
  57 2   10.8529835800000001    8.6150234799999996    6.8946615600000003   -0.0576008762768940    1.5842301706477833    0.5579473893628463
  58 2    3.8762220599999999    1.6630748900000001    4.1044106700000000   -1.0696914146277190   -0.5668669518296734    0.8728901372136906
  59 2    5.8673867599999996   10.6716270499999997    3.3763120500000001    0.7390104716938579    0.4551103420249190    0.2486573157224729
  60 2    5.5116577099999997   10.6540145099999997    0.7522161400000000   -1.6535785165629571   -1.2131164247497046    2.2418184766847986
  61 2    3.9002888900000001    1.6740566400000001    1.6405635100000000   -1.9192336920217743   -0.6481900599891598   -2.3903927444507884
  62 2    3.6148129999999998    1.6211643600000001    9.5406527899999993    0.6313947659481784    1.0186368304740250   -0.8653318272038311
  63 2    5.7888704700000000    0.0107577000000000    8.8401978700000008   -0.8442640476595976    1.8401455819023864    0.2259792535154808
  64 2   10.8968633500000003    9.1563911000000004    9.6441568300000000    0.3922158759155756   -1.5228874090283833   -1.4455192272251776
  65 2    3.4844188500000000    5.0834485799999998    3.7930377300000000    0.8287796045274806    0.8857238937556335    0.9170195017016176
  66 2    5.5925345699999998    3.3697822799999999    3.3712241600000001    0.0523905122153071    4.0327801450136258   -0.1300739281447985
  67 2    5.3253816100000000    4.1550901700000002    0.5425526300000000    0.5431294943810532    1.5254733226547352    2.2671854949385666
  68 2    8.9840330700000006    7.0992439000000003    6.2406166699999996    1.3172502902008540   -0.4337026414993639    1.7411362987203054
  69 2    3.5141731500000000    5.4887050000000004    9.1911944400000003    2.3669772586818674    0.6453928292085662    1.2270283041531940
  70 2    5.3005107200000001    3.7454195800000001    6.0235617599999998    3.1238535174676847   -3.3931498439158712   -0.0688406584051988
  71 2   10.9428808499999999    5.4587485600000001    9.1918897899999994   -0.1048056146511486   -0.5465325252552806    0.7164975305733211
  72 2    9.1598810299999993    0.0837115100000000    6.4382472000000002   -0.4049908625881825   -2.3279769913049870   -1.2134394090680489
  73 2    1.7347139899999999    3.5966836700000000    6.2946254899999996   -0.2948342188531760   -1.3410292627673486   -1.2695062268101753
  74 2    6.6201868800000003    1.9379128400000001    0.9569061200000000    1.1484567433482185   -0.1656447559109508    0.7828087567877904
  75 2    9.0192770899999992    0.7570895100000000    0.8552598300000001   -1.4783039787515682   -2.2003605140763343   -1.5842528653055987
  76 2    7.3258765400000003    8.7171040400000006    4.3839670799999997   -0.4895121240082251    2.8746742952788784   -0.4000652187717879
  77 2    7.5008020100000001    1.9078092600000001    3.9086825300000001   -2.0715922999244705   -2.6337977875243168    1.5836946456521310
  78 2    3.5114363499999999    9.5687969699999993    7.2567654399999997    2.7738499201837845    0.0420955560148883   -0.2537406239477213
  79 2    8.9451281999999992    7.2605082200000002    9.0573037999999997    1.5951596943389028   -0.3520059895117593   -4.3887030195901318
  80 2    7.3484578400000000    1.7218183400000000    9.3133880799999993    0.6250926458349712    0.3935669701474451   -0.2027984192698368
  81 2    7.7142563300000004    9.0940986899999992    9.6450297799999998   -1.6048274597499801    2.8376047071663497   -1.0340909585388554
  82 2    5.8448564000000003    7.2782907999999997    8.6964975100000004    0.5146436323768985   -0.4947934771803994    0.0462586550541581
  83 2    9.0571913199999994    7.2096918800000003    3.6427283600000000   -0.1298184709004503   -1.1267847605555470   -0.2762572527245593
  84 2    5.1491348400000003    7.4112087700000000    6.1715991800000003    2.7085874747739282   -1.4126793859563356    0.6582854959639354
  85 2    7.3006592200000000    8.9426611299999994    1.4384127900000001   -0.5897970472970459    0.7963869393772185    1.4954953978717576
  86 2    9.0891076799999997    7.3007725099999998    0.6677890300000000    3.9996169188834445   -0.7794187163643602    2.7125485345688278
  87 2    7.6362253999999998    5.2474180500000003    9.4663071900000002   -1.4545833125072261    1.1086341842746616   -0.6736011988451261
  88 2    4.0345408599999999    8.9785132099999991    9.6397276099999996   -1.2712320336860872    0.8149386889214070    1.7265977987737189
  89 2    9.3238728500000008   10.8999822999999996    9.0311523099999995    0.0349342896542847    0.5217827030649902   -1.3757876388008239
  90 2    7.2296911899999996    5.1815925399999996    6.8325191099999998   -0.8371858181229626    0.2693371494823157    1.6280174378915264
  91 2    5.4810941900000003    0.4163562700000000    5.9070828000000004   -2.4835603893819429   -0.5906876657453085    0.7509639220526135
  92 2    0.4158410100000000    5.6138053200000000    6.4924396900000003   -1.1540433530282490   -2.4682074929223234    3.1787092102331558
  93 2   10.8613636099999997    9.2070802399999998    4.0367162700000003   -0.0096681870798720   -1.3825487968463570    2.1647902422107719
  94 2    1.5810151100000001    7.3236430500000003    3.4513526899999998    1.1652576322896939   -3.2420757035851815    1.5566899146088127
  95 2    3.9574907100000001    9.0638144399999998    4.2112619899999997   -0.9667757498975119    1.2512498067184650    0.0115914241803912
  96 2    3.2360449099999999    5.9970761100000001    1.5488692500000001    1.1254793820974776   -0.6688042495967744    0.0384702594658550
  97 2    5.2545450400000000    7.1741711099999996    0.8439352700000000   -0.9009555564290626    0.6829704753387402   -0.3946250242637914
  98 2    9.1459865199999992   10.8676504900000008    3.5999253800000002   -2.2970086156957024    0.3832284264542613    0.7897210664926648
  99 2    9.1962395000000008    3.3834953600000000    9.0509243799999997    0.8473245490357889    1.0125925095901775   -0.8109064901275594
 100 2    7.1961840099999996    5.9043847300000003    1.6130177100000000   -0.3980344264450338   -2.3801956085501850    0.6758937100412485
 101 2    8.7533348699999998    3.6848508700000000    1.3186781700000001   -0.1154867784445188    0.0413399080197463   -2.1923413783206609
 102 2    9.0494758799999993    3.5659999700000000    3.5588294199999999    0.4475144757408500    2.8287006770377192    2.3374368185803815
 103 2    7.1367621699999999    5.2613336000000004    4.5414043599999996    0.5408090401236001    4.2379094825396404   -3.5686212681671079
 104 2    3.2418811700000001    9.3051311900000009    1.6329740900000000    2.0039515077397771   -0.5543827662024148   -0.5926532679598628
 105 2    9.1155543699999999    3.4867889600000002    6.2457008399999996   -2.5876103110291147    1.2475098123678856    2.5020917251849961
 106 2    7.2934387799999998    1.7093592799999999    6.7606757899999996   -0.4317964489154762    0.8088457615640983   -1.4214233252155468
 107 2    2.1277929200000001    3.5278868900000000    8.7864617900000006   -0.3050317034677285   -1.6445269407358911   -0.7112472850390710
 108 2    6.9259656700000001    9.2839186199999997    6.8249149100000004    5.0643962302678016    0.3774992159362312   -1.2327141299381288
