ITEM: TIMESTEP
0
ITEM: NUMBER OF ATOMS
108
ITEM: BOX BOUNDS pp pp pp
0.0000000000000000e+00 1.0956000000000000e+01
0.0000000000000000e+00 1.0956000000000000e+01
0.0000000000000000e+00 1.0629000000000000e+01
ITEM: ATOMS id type x y z fx fy fz
   1 1    1.949842609999999920589175417    1.612389480000000041570729081    2.246311500000000016541434888    0.262884675772251830139225603    2.338821375388880685619596989    4.023002118772066815211019275
   2 1    3.231099480000000134793936013    7.291757800000000067086602940   10.610181889999999782503437018    2.368986506437937400448845437    0.261624492372091344005724523   -1.362385705828249360394011092
   3 1    5.086749189999999920530626696    5.374359089999999561371168966    2.243068689999999865136715016    0.892248698897919134687128917    1.113931964132388818811136844    0.198802737347850089211220848
   4 1    8.926571369999999561173353868    5.120659540000000120585355035    7.824784519999999687911440560    2.310065495943440794235357316    1.553610028931853959122122433    2.797702485956096829511352553
   5 1    0.259272100000000005337597031    7.013375589999999881740677665    5.330541819999999653134636901   -0.146914650809852220803009004    5.056507402005523843513401516   -1.980687504519617725406988029
   6 1   10.736598759999999685987859266   10.880092780000000018958417058   10.615321330000000443760654889    0.579687695043653361537394630    1.647382221474932739724295061    0.708812370565454652471260033
   7 1    7.188178240000000052134510042    3.548039900000000024249402486    5.141905020000000270385953627   -0.946380068795950046833809211   -2.287561471832237458556846832    0.233052057977868098959106646
   8 1    7.268007279999999958874923323    7.106965690000000002157776180    5.450533870000000113975602289   -1.596737598411657188535173191   -0.238399339954238592698132493   -0.612044839552210451216751608
   9 1    1.649426459999999927674707578    5.283368300000000239435848925    2.643377239999999961383991831   -0.822365232287727287996403902   -0.166637808050896979450428148   -0.803740420864780036325214496
  10 1   10.728394910000000450622792414    3.264657810000000104366790765    5.312207639999999564395238849    3.653926559136935203753182577    2.508587539269867772162569963   -3.087585162883803135969174036
  11 1   10.823574170000000549407559447    3.635197509999999798679937157    0.193662289999999986944700936    0.057728304764820048688989118    0.407917382660975214037080150   -2.582751292802793585678955424
  12 1    1.935424840000000035189486880    5.151987680000000402458226745    7.793367530000000265033577307    0.254702015684514226911971946    1.976021025695416266643178460   -0.854657515166161285691259764
  13 1    8.946162779999999870028659643    9.047340889999999191672941379    8.007849059999999852266228118    0.493208435856580029721385472   -0.504622582105756167791810185    0.261102101494523897162736148
  14 1    1.709807159999999992550101524    1.689404459999999996711039785    7.930354720000000412483132095    0.503763843017343782015871057    0.562955963708566931025245594    2.458651005593806004867474257
  15 1    7.389370719999999614913122059    7.287011009999999622266386723   10.475857899999999389706317743   -2.251537746413471818840434935   -0.460698778009529630317331339    1.121296422093396749630755949
  16 1    8.730777129999999885967554292    9.039344870000000753407221055    2.951338380000000150005234900    1.301234443314887023745995975   -0.723374750916395137245729074   -2.808102621548960620145862777
  17 1    5.078994640000000337920482707    8.986125330000000133168214234    2.419384029999999796700649313    1.727706747484589522301234865    0.047518892919367228255822511    0.621058427446506744473708750
  18 1    5.442605880000000340146470990    9.307152459999999294382178050    7.983922330000000400218596042   -4.836745033734055176921629027   -4.572686415651315172681279364    0.552635899025879284707229999
  19 1   10.950757330000000067116161517   10.751653069999999701167325838    5.300467379999999728568127466   -1.408668257069325191466191427    0.660468728313621689096635237   -2.789632022414552103839469055
  20 1    3.527675219999999889353148319    3.473559589999999808185293659    5.181676829999999789322373545   -0.841370622518578192838845098   -0.379347604066069821193707412   -1.206644320476201404090943470
  21 1   10.953803869999999776041477162    7.294074010000000107822870632   10.325891739999999430210664286   -3.707076386418111990650459120   -2.685578280261206707280052797   -0.732727972356604806414281938
  22 1    1.645627900000000032321167964    9.098723429999999723349901615    7.931848419999999677543200960    2.023458081444796441417111055   -0.622334040132674015666225387   -0.691117114876786620136783768
  23 1    7.240641379999999571737134829    3.782527120000000131483375299    0.074847079999999996391402135    0.652731945179338524098966445   -3.078643198458431040620553176   -1.644637660014405922126456971
  24 1    8.949955629999999828783074918    5.408037069999999779668087285    2.687265660000000000451336746    1.178216928324072432232583196    0.813786546682706779520799500   -0.766910581310028871548922780
  25 1    3.823680369999999939523149806    6.990410719999999855645000935    4.813164610000000287470811600   -1.970753472570801134722273673    0.065807445896240504557006545    2.702862262159469342037709794
  26 1    3.773733179999999798326371092    0.046673979999999996859383344    0.022074630000000001334159450   -2.968717747429409747894624161   -2.308833064816144808872877547   -0.441654457222193097543083695
  27 1    7.199962629999999919050424069    0.072845460000000000766462449    5.242678149999999703823050368    2.278280224673475462537908243   -1.840810052719012324118352808   -1.779257029837751913348142807
  28 1    5.669625810000000321053903463    1.624243869999999922981714917    2.625673690000000171096417034   -1.585863930511006048007516256   -1.821407558935292936297400956    1.268285631470082996941073361
  29 1    5.349467930000000315260422212    1.725043019999999982516669661    7.581398270000000216839453060    1.691844684572550105983168578    0.653041925371735887395630016    2.028213115634799557085443666
  30 1    1.425602280000000110504743134    8.986638729999999242181729642    2.579601010000000194111180463   -1.863544139508173547170599704    3.356962270494161071354710657   -0.787968079678552202338437382
  31 1    3.329988769999999931314960122   10.934126239999999441465661221    5.250665520000000086042746261    3.541532844389155165742977260   -1.491888203241549915034624973   -1.166541877833300766553747962
  32 1    3.735774800000000173128000824    3.610602720000000154243480210   10.216593100000000760019247537   -2.403570830448520823097169341   -1.079190147055944848375474976   -2.180297424171993903030397632
  33 1    7.181718260000000242371243075   10.953563819999999395804479718   10.547285739999999520932760788    3.542859881213921813269962513    1.947668220884863909958539807   -2.061436005792279591020133012
  34 1    9.036333499999999574470166408    1.791452480000000013760086404    2.522221519999999994610107024    0.929400671390820276585031934   -0.339018676692305509501323968    2.351683887097604674920603429
  35 1    5.442805159999999808917436894    5.475869389999999725660018157    7.883840089999999634073901689   -1.853083988603519527416096935   -0.209487917792700650831960729   -1.146389868817893287200604391
  36 1    9.049765450000000654995346849    1.700167640000000091049514594    7.771384630000000015570549294   -1.288889328904087250293741818   -0.223066273533859049660321716    3.189973174314535420137417532
  37 2   10.505774900000000471322891826    9.584548079999999359301909863    1.647642320000000104585069494    0.980171511426809249911684674   -0.250989130800569559820445420   -1.031620084745962451222567324
  38 2    5.069864789999999565850430372    7.108639110000000371769601770    3.365243969999999862352524360    2.950070516664944797469161131   -0.199782655331754960270629340   -2.457950018428809002557500207
  39 2   10.824998340000000496274878969    5.572166600000000080683548731    4.057715560000000110107976070    0.463049293186388100096451126   -2.940825021792652371743770345   -0.928580754633766103367520373
  40 2   10.520126610000000155764610099    1.731661099999999953169549372    4.229479139999999581789325021    1.115453889821904631673987751   -1.972974227049665962852031953   -0.033023087051701205396625483
  41 2    1.762981340000000063383822635   10.869558259999999805245352036    3.884804799999999946891193758    0.029466062858246877542711673    1.322453222860024091289687931   -1.741955590517624941071517242
  42 2    1.702418549999999974886577547    0.084679030000000002353921502    1.168723490000000087007947513   -0.664766206099083545311145826   -1.096985655863079278660165983   -2.931851914376972345621652494
  43 2    2.122603059999999874918330534    3.981060900000000124521193356    0.674087349999999974059505803   -1.941739877707490791181044187   -1.072394225150218760589382327    1.552676829383058176858867228
  44 2    0.449506379999999983176905971    1.935586440000000019168169274    9.725751620000000485788405058   -0.446118617154659558021734256   -0.893674409027310212572103865   -0.246506305454180618674797643
  45 2    1.744104050000000016851231521   10.828521350000000822433321446    8.973917809999999661840774934   -0.239756617284180073568222724    0.366682272643771955955571684   -0.333682834980359055432330706
  46 2    1.757487570000000109970983431   10.475639879999999237725205603    6.272265479999999726601345174   -4.102426244698382795661473210    1.452277478842089353250344175    1.120830809548037265699349518
  47 2   10.954229399999999117198967724    1.810007230000000078007360571    6.749824539999999650774498150    0.769382619727355887562225689   -1.133793039159896487433343282    1.651728177110123318982459750
  48 2    1.884323650000000016646595213    3.387104480000000084061184680    3.323790339999999954301301841   -1.176850607832796269391906208   -0.070015099724119372881503409    0.961522522784409527929483374
  49 2    1.471964999999999967883468344    7.533258390000000304098648485    0.959705699999999994886934473   -0.482358930712766253989798315    0.936307078234506096059419633   -0.210663519411967009586916788
  50 2    1.806305309999999941794612823    7.192859089999999788744844409    8.943021319999999718675098848   -0.280044121370575549434533968    1.600224724011439558779557046    0.074235412069732664708254788
  51 2   10.728629149999999725650923210    2.286713419999999885590113990    1.623963349999999916661863608    4.206104237963844028058701952   -0.417433830986426446241210897    0.376117062409433877689934889
  52 2    3.747839110000000140132669912    5.108256250000000164845914696    6.455353299999999627800661983   -1.791637130009665623830983350    2.794255634538794552668150573    2.193976157749467414959099187
  53 2    3.510420620000000102578496808    1.652877710000000055501345742    6.734096059999999717149421485   -1.472963200203164513268916380    0.072410985993942134086864826    0.535084704520515042069916944
  54 2    5.390971229999999891902007221    3.505739549999999926654936644    8.697857909999999748151822132   -0.430296074589184840419875400    0.924933823670881616330063935   -0.424853946602035403845576411
  55 2   10.832870989999999977726474754    5.284404519999999827462033863    1.480132250000000038170355765    0.031981434856856616466558307    0.039556834443325958328152581    0.192267891690711678620573366
  56 2    2.362215270000000089112290880    7.519582889999999686381215724    5.950428709999999732360720373   -3.933224206678694656602601754    0.172744314391488379412109566    1.492992937940931907903063802
  57 2   10.852983580000000074505805969    8.615023479999999622691575496    6.894661560000000299908151646   -0.057600876245018084453874962    1.584230170631578893392088503    0.557947389367699053686067145
  58 2    3.876222059999999913770807325    1.663074890000000083389863903    4.104410670000000038726284401   -1.069691414620769887022788680   -0.566866951840798494188788936    0.872890137206960625704255108
  59 2    5.867386759999999590320385323   10.671627049999999670149009035    3.376312050000000120064669318    0.739010471704033444773074280    0.455110342047347238292331895    0.248657315743960494192066335
  60 2    5.511657709999999710248630436   10.654014509999999660294633941    0.752216140000000033083438211   -1.653578516571349688035752479   -1.213116424748368338271120592    2.241818476699084961012431449
  61 2    3.900288890000000119329115478    1.674056640000000095724885796    1.640563510000000002619913175   -1.919233692015677394948625079   -0.648190060005034984769167750   -2.390392744440539285477598241
  62 2    3.614812999999999831857167010    1.621164360000000081996063273    9.540652789999999328074409277    0.631394765953774417255317530    1.018636830490183609043697288   -0.865331827240704454240471932
  63 2    5.788870469999999990307060216    0.010757700000000000248312482    8.840197870000000790469130152   -0.844264047658984884137112203    1.840145581904388594196575468    0.225979253531571444568726292
  64 2   10.896863350000000281170287053    9.156391100000000449199433206    9.644156830000000013569660950    0.392215875918731082805379629   -1.522887409029413552374876417   -1.445519227237671566754784180
  65 2    3.484418849999999956423835101    5.083448579999999772383034724    3.793037729999999996266524249    0.828779604501438171837435220    0.885723893767682013411501885    0.917019501667038161585310263
  66 2    5.592534569999999760625541967    3.369782279999999907715846348    3.371224160000000136250264404    0.052390512202842541567004986    4.032780145014443817785831925   -0.130073928123227350317492323
  67 2    5.325381609999999987792307365    4.155090170000000249217464443    0.542552629999999980192626481    0.543129494429276715727894498    1.525473322622463712150420179    2.267185494942837387100098567
  68 2    8.984033070000000620325408818    7.099243900000000273564637610    6.240616669999999643891896994    1.317250290199744267027881506   -0.433702641508463104802473254    1.741136298705424856336776429
  69 2    3.514173149999999967718622429    5.488705000000000389093202102    9.191194440000000298596205539    2.366977258704907605135758786    0.645392829213103147445451668    1.227028304120634238927323167
  70 2    5.300510720000000119966898637    3.745419580000000081554389908    6.023561759999999765113898320    3.123853517494397991072219156   -3.393149843922826036646256398   -0.068840658410851657267315318
  71 2   10.942880849999999881561052462    5.458748560000000082936821855    9.191889789999999393899088318   -0.104805614647654227189477183   -0.546532525258413559576808893    0.716497530568338536482997370
  72 2    9.159881029999999313417902158    0.083711510000000002862385884    6.438247200000000169950453710   -0.404990862578089250156665457   -2.327976991285833463507515262   -1.213439409046486838761325089
  73 2    1.734713989999999927960061541    3.596683669999999999333795131    6.294625489999999601309355057   -0.294834218863450792103009235   -1.341029262764736440516344373   -1.269506226797883163825986230
  74 2    6.620186880000000329005160893    1.937912840000000080920017353    0.956906119999999971170723256    1.148456743355489972913119345   -0.165644755899970130830212156    0.782808756783838988191348562
  75 2    9.019277089999999219571691356    0.757089510000000021072708023    0.855259830000000054184283726   -1.478303978749455183105965261   -2.200360514104864328999155987   -1.584252865329081050305148892
  76 2    7.325876540000000325392193190    8.717104040000000608756636211    4.383967079999999683082023694   -0.489512124022082939500677412    2.874674295262435563813596673   -0.400065218773137498686764957
  77 2    7.500802010000000130673925014    1.907809260000000062262870415    3.908682530000000099335011328   -2.071592299937667025488963191   -2.633797787517845545579575628    1.583694645667834022262354665
  78 2    3.511436349999999873006117923    9.568796969999999291189851647    7.256765439999999678377662349    2.773849920158573123529777149    0.042095556007792578334658629   -0.253740623944948340273697340
  79 2    8.945128199999999196734279394    7.260508220000000179084054253    9.057303799999999682768248022    1.595159694333337707661257809   -0.352005989516479433909523777   -4.388703019594244025824991695
  80 2    7.348457840000000018676473701    1.721818340000000002731894710    9.313388079999999291658241418    0.625092645832496240920761466    0.393566970148204742230291231   -0.202798419277873204213946678
  81 2    7.714256330000000438928964286    9.094098689999999152178133954    9.645029779999999774986463308   -1.604827459735547190433635478    2.837604707164007589170751089   -1.034090958506606483524592477
  82 2    5.844856400000000284933321382    7.278290799999999727276644990    8.696497510000000374930095859    0.514643632352985158640024110   -0.494793477274449333691563879    0.046258655036346310596151454
  83 2    9.057191319999999379319888249    7.209691880000000274719695881    3.642728359999999998564135240   -0.129818470897980819955819243   -1.126784760567960619326299820   -0.276257252736395675363212376
  84 2    5.149134840000000323811946146    7.411208770000000001232365321    6.171599180000000295365225611    2.708587474758672453134522584   -1.412679385959931588345739328    0.658285495933479958274858745
  85 2    7.300659220000000004802132025    8.942661129999999403139554488    1.438412790000000107681898953   -0.589797047303136534601719632    0.796386939384685077492065375    1.495495397864718523095461933
  86 2    9.089107679999999689357537136    7.300772509999999826391103852    0.667789030000000005671267900    3.999616918896315542752972760   -0.779418716368948660822013608    2.712548534570659253262192578
  87 2    7.636225399999999829958596820    5.247418050000000278032530332    9.466307190000000204577190743   -1.454583312496037894590017459    1.108634184257948351870481929   -0.673601198828990166411756491
  88 2    4.034540859999999895535438554    8.978513209999999133970050025    9.639727609999999557999217359   -1.271232033685344209317236164    0.814938688914682574093717449    1.726597798798308769363529791
  89 2    9.323872850000000767067831475   10.899982299999999568740349787    9.031152309999999516776370001    0.034934289660007333822022701    0.521782703081851040316507806   -1.375787638811078794631725941
  90 2    7.229691189999999600956925860    5.181592539999999580402345600    6.832519109999999784577084938   -0.837185818185131491730999187    0.269337149493603544847530884    1.628017437920642240811730517
  91 2    5.481094190000000310192262987    0.416356269999999972775128754    5.907082800000000410989287047   -2.483560389382633015742385396   -0.590687665734525024774370650    0.750963922031548825053448581
  92 2    0.415841010000000010915499615    5.613805319999999987601313478    6.492439690000000318548245559   -1.154043353025902662878365845   -2.468207492882877218676185294    3.178709210226419834555144917
  93 2   10.861363609999999724209374108    9.207080239999999804467734066    4.036716270000000328366240865   -0.009668187077191747746951478   -1.382548796848079186716518052    2.164790242217530913393375158
  94 2    1.581015110000000056800217862    7.323643050000000265242761088    3.451352689999999778791561766    1.165257632301258894358397811   -3.242075703595416857893951601    1.556689914595417389975295919
  95 2    3.957490710000000078139237303    9.063814439999999805763764016    4.211261989999999677536379750   -0.966775749921237825823538969    1.251249806704462175233061316    0.011591424197700241072173100
  96 2    3.236044909999999941163650874    5.997076110000000070954229159    1.548869250000000086231466412    1.125479382065842637317132358   -0.668804249595882138734737055    0.038470259497220556099694733
  97 2    5.254545040000000000190993887    7.174171109999999629280864610    0.843935270000000015144792087   -0.900955556446326633057708477    0.682970475364011342378489644   -0.394625024272106716960450967
  98 2    9.145986519999999231345100270   10.867650490000000829127202451    3.599925380000000174618435267   -2.297008615696824129770448053    0.383228426438840807932706412    0.789721066495308487986903856
  99 2    9.196239500000000788304532762    3.383495359999999951838844936    9.050924379999999658252818335    0.847324549042676289367648224    1.012592509568547960441264877   -0.810906490145547942383075224
 100 2    7.196184009999999631190803484    5.904384730000000303107299260    1.613017710000000048964352573   -0.398034426434957566698358278   -2.380195608541098017951753718    0.675893710050835760938525709
 101 2    8.753334869999999767742338008    3.684850870000000000459294824    1.318678170000000093864400696   -0.115486778457171881950849013    0.041339908046234559446663326   -2.192341378315334488036114635
 102 2    9.049475879999999250458131428    3.565999970000000018899299903    3.558829419999999910118049229    0.447514475745816042717706296    2.828700677068908042599559849    2.337436818584567976841981363
 103 2    7.136762169999999905201093497    5.261333600000000387808540836    4.541404359999999584829311061    0.540809040134727858628593822    4.237909482534686134158619097   -3.568621268169426485883377609
 104 2    3.241881170000000089714831120    9.305131190000000884765540832    1.632974090000000044753392103    2.003951507723640723668268038   -0.554382766217791034257800220   -0.592653267976891218182800003
 105 2    9.115554369999999906326593191    3.486788960000000159311639436    6.245700839999999587348611385   -2.587610311034394428020277701    1.247509812371158766097778425    2.502091725191913695880430168
 106 2    7.293438779999999788117293065    1.709359279999999925436782178    6.760675789999999629742433171   -0.431796448886804462574673380    0.808845761573798838206528217   -1.421423325209506094424227740
 107 2    2.127792920000000087554781203    3.527886889999999997513668859    8.786461790000000604550223215   -0.305031703447477209323324132   -1.644526940735181241848295031   -0.711247285044842580958857070
 108 2    6.925965670000000073969204095    9.283918619999999677361302020    6.824914910000000389800334233    5.064396230278878974218059739    0.377499215925913622626808319   -1.232714129968323968356003206
ITEM: TIMESTEP
1
ITEM: NUMBER OF ATOMS
108
ITEM: BOX BOUNDS pp pp pp
0.0000000000000000e+00 1.0956000000000000e+01
0.0000000000000000e+00 1.0956000000000000e+01
0.0000000000000000e+00 1.0629000000000000e+01
ITEM: ATOMS id type x y z fx fy fz
   1 1    1.948289515540279515093402551    1.610031572659942789016440656    2.246832561476319156668068899    0.222097985604712722107478839    2.403292973692576772748452640    3.960261217525711252562814479
   2 1    3.233648162000111181413330996    7.289467137311232747265421494   10.609832294780900951991498005    2.497174341774490713419254462    0.180812008958577491446462204   -1.502182052309799065170636823
   3 1    5.082941562272108804165782203    5.370938138840217312974800734    2.244534618442503681734478960    0.910332900759979191107618135    1.017164460241056778144752570    0.069744122664125940413981652
   4 1    8.927313477888496606738044647    5.125525141378067139896756998    7.823553623536435353003071214    2.193011398443672987923491746    1.422230253077009010098663566    3.045070685844104563244627570
   5 1    0.257255993312640873771357519    7.010893224314142635478219745    5.334473940779682621382562502   -0.061763571062510180809113081    5.469972433806967515579344763   -2.070831149783412428178053233
   6 1   10.734226792544165007825540670   10.880212436033591671957765357   10.617557693682060815376644314    0.600561342751985804966352589    1.773144962290690518358360350    0.741935136960864216604250032
   7 1    7.190996986047212935488914809    3.543485451756146709101358283    5.139148401239157948339197901   -0.906732768168200808922563283   -2.420027996142255055644909589    0.136997795018019452584212559
   8 1    7.271308739842146984244664054    7.107727511475155246500889916    5.454620647977552749807728105   -2.096979505829370538094735821   -0.349436349160797188329041774   -0.841061877007580838139233492
   9 1    1.651334238784990748882819389    5.285061264090732180420673103    2.646883064545337838069372083   -0.930200951209730231283856483   -0.245772601199512552572201685   -0.942167698495176120232486028
  10 1   10.718591156400242070390049776    3.268797033626198000888507522    5.306731693819572548420637759    3.876844711262500631221428193    2.215884808665363081559007696   -3.060994855137837866720929014
  11 1   10.824195456248965285794838564    3.630256985873994146629684110    0.194555493353684105795053938   -0.027041373362473919428339286    0.466730049266002700036892747   -2.562469459881800304401622270
  12 1    1.933156045794898636458469809    5.150488581593569037408997247    7.788704469136962238451360463    0.385842726038293948320756499    2.256497497217972547645103987   -0.921927071764849781487782820
  13 1    8.945963251893877199449889304    9.044626953011288605921436101    8.014552874240200353028740210    0.532584131159506313224483165   -0.353474023486490152023975497    0.262979570722255584502846659
  14 1    1.716000817910723341697121214    1.691973307980143559348107374    7.931686093981119789475542348    0.318548424653582573640164810    0.588872488484212364134862128    2.206870288685525149929844702
  15 1    7.386941673467598334923422954    7.286663521051974790054828190   10.475773261600764385548245627   -2.282500797049941798633199141   -0.540208126595182025475594401    1.139981861678915020519298196
  16 1    8.727649413596942906679032603    9.035423241061138810437114444    2.953323222459101948800253012    1.462249620536395955383568435   -0.332114275202368636197292062   -2.797910631482366738964628894
  17 1    5.080123879023225264006669022    8.984616189593598534202101291    2.422409704816481212930057154    1.785041840657373812817354519    0.165606452617992699893889608    0.573672624635859218500399948
  18 1    5.444749519403447202137158456    9.306917294358237668916444818    7.978867947122309622898228554   -4.942308540329935162560559547   -4.895609661011747881786959624    0.486501394520789665065763074
  19 1   10.955638393292652210675441893   10.748715248253640552889009996    5.297139422340922720877642860   -1.452880821045306358740845099    0.803216525983238116559448372   -2.742885939694266195232330574
  20 1    3.529612200118195985965030559    3.477869532874636959718372964    5.186453060476440946047205216   -0.805361501490968523242486299   -0.512722981894476403930127617   -1.337192832317433133226813879
  21 1   10.949242598744755028405961639    7.290557839318900335001671920   10.322923985980370531478911289   -3.473935553347709870308790414   -2.737410809574750025774392270   -0.482459807101870308265745280
  22 1    1.647084499701175541730435725    9.098999166372729874296965136    7.932623419956414956288881513    2.084643469024119788457483082   -0.540818298210707704143374031   -0.686642342969284613651836935
  23 1    7.241159797791721253190644347    3.781583027773201433063832155    0.076619174337507256478119189    0.990887478982768965529714933   -2.997886924966494781585879537   -1.833007858102994713789257730
  24 1    8.949048588975195173134125071    5.407772700824935441232810263    2.679026849211821215135387320    1.215610281479778231883415174    0.865845518840680394845321644   -0.819306330621151213122743684
  25 1    3.825122159493798967844213621    6.995053743509310528736477863    4.809326966036696404671602068   -2.042056804346847886932891925    0.081971889633953340381644637    2.690850403085328856889191229
  26 1    3.774166177810092115407769597    0.048838343305705696206775457    0.021714936685307051345006357   -2.716462907738144583191797210   -2.275300729419015954846372551   -0.321962741865891521886311466
  27 1    7.201254229625662084401938046    0.071328867472752938150293289    5.241861936569346624992249417    2.101293340281284116599636036   -1.749139614332484882197604747   -1.761803314497723871312473420
  28 1    5.666838241206131776550591894    1.622977773645772892052718817    2.629093380438780602759152316   -1.578669390427377861030322492   -2.022852878353945893508125664    0.973847490222483513910844977
  29 1    5.350892825073453096251796524    1.728574646893047850326752268    7.587300584221523536143649835    1.498703419399566971748072319    0.600287805316473632721852027    1.731649338939857063479621502
  30 1    1.427477399237471189508141833    8.988924012111075612097010890    2.577919162488028881341506349   -1.867912526755326707572635314    3.218629865594729189126610436   -0.714660406799441538794326334
  31 1    3.331559478421425080085782611   10.931092757731095232998086431    5.248622092220822210606456792    3.582389133673359982168449278   -1.344727876665461563376879894   -1.268806408254802731150334694
  32 1    3.736853439514395525122836261    3.614941714056595145621031406   10.212655131957488308103165764   -2.575448662084211193246119365   -0.938369996986547771911091331   -1.962763284838706434598520900
  33 1    7.181993696302427565569814760   10.951290596986178016436497273   10.552907566950946005590594723    3.557635885331587477509174278    2.007446795302154640694425325   -2.128129913256048943992482236
  34 1    9.035654137560609200363614946    1.792481852405264808325568993    2.520745252803126668084132689    0.878431980481977681129990287   -0.450335668754524742762868073    2.215977261951386889649029399
  35 1    5.442274913479504760971394717    5.476374103024381767568229407    7.885108123337452035173100739   -1.845779737975281831197094107   -0.238187773566782418077636407   -1.193111749116233966105937725