(written by ASE)

108 atoms
2 atom types

0.0      10.955999724221174  xlo xhi
0.0      10.955999724221174  ylo yhi
0.0      10.628996000452345  zlo zhi

Masses

     1      178.48999995408445 # Hf
     2      15.998999995884349 # O

Atoms # atomic

     1   1              1.75810818      1.7363813400000001              2.65181975
     2   1      3.8030104699999998      7.2733146199999998    0.089404239999999996
     3   1      5.1983008599999998      5.4534430800000004      2.5631364099999998
     4   1      8.7603067200000009              5.15193835      7.9936113400000002
     5   1              10.9423858      7.2522286999999999      5.3877903500000004
     6   1              0.03063188    0.033671069999999997      10.509803489999999
     7   1      7.1687176900000003      3.7167221100000001      5.3341662100000002
     8   1               7.2913964      7.3765004100000002      5.2946994099999998
     9   1              1.68550825      5.2189244300000004      2.6766372899999999
    10   1             10.89860562      3.5621953999999998      5.1095583600000003
    11   1      10.855783000000001      3.5500813600000001             10.17753102
    12   1      1.7240492599999999      5.4765722999999999      7.7714291400000004
    13   1      9.0552236100000005      8.8825789700000009      7.7620015100000002
    14   1      1.8586404299999999      1.8009362799999999      7.6191495099999997
    15   1      7.1933642999999998      7.1350027899999997             10.50094228
    16   1      9.1600056999999993      9.1360350700000001      2.5701526399999999
    17   1      5.3803205500000004      9.2000958900000001      2.8115538500000001
    18   1      5.1367456699999998      9.1679871399999993      7.4103665000000003
    19   1      10.876019830000001      10.646840040000001      5.3227643000000002
    20   1      3.6228664400000001      3.4481631699999999      5.2780802600000003
    21   1             10.83393345      7.2646067900000002      10.603282269999999
    22   1      1.6611925000000001      9.0649700699999993      7.9485931399999998
    23   1      7.2790183099999997      3.4797230200000002              0.15947553
    24   1      9.1286693499999991      5.5750963100000002      2.6505510499999998
    25   1              3.62554519      7.0027835899999999      5.2098594399999998
    26   1      3.5883309400000001             10.64370881             10.20303769
    27   1      7.3530578599999998    0.093931260000000003      5.2096556600000001
    28   1      5.0508341999999997      1.5998936800000001      2.5563425999999998
    29   1      5.2413020599999998      1.8857554400000001              7.94624636
    30   1      1.7375766399999999      9.1729721200000007              2.28875874
    31   1      3.3980449500000001             10.69946609      5.0062870999999998
    32   1      3.4133033699999999      3.3175380699999999      10.439996239999999
    33   1      7.3435568199999999             10.64502025              0.05070765
    34   1      9.0194697999999995      1.9473237699999999      2.6255286400000002
    35   1      5.1967637299999998              5.36640534      8.0490585600000006
    36   1      9.1043711300000005      1.5510101999999999      7.7305566900000002
    37   2             10.83156148      9.3689278500000004              1.43534443
    38   2      5.3151805599999999      7.2225565700000001      3.7253872100000001
    39   2     0.27637056999999998      5.5250241100000004      4.4734716399999996
    40   2             10.88587804      1.4658777000000001      4.3310337800000003
    41   2      2.0988759300000002      10.873183320000001      3.4272087199999999
    42   2      1.8425668900000001      10.894187069999999     0.78163497999999998
    43   2      1.4562386199999999      3.7833071999999999     0.97026880999999998
    44   2             10.74353331      1.5871704799999999      9.3696509399999997
    45   2              1.89386945      10.879355929999999      8.4237427900000004
    46   2              1.72586248    0.074024209999999993      5.9171009899999998
    47   2             10.86353656      2.0565419399999998      6.7423726300000002
    48   2              1.94142835      3.4654473499999998              3.43659582
    49   2              1.77204969      7.8602472399999996     0.76696600000000004
    50   2      1.9216363400000001      7.1395561000000001              9.00265892
    51   2              0.08815307              1.51339059      1.3373353400000001
    52   2      3.5200345300000002      5.0924604200000001      6.9521504399999996
    53   2              3.68286479      1.4462730399999999      6.7486712300000002
    54   2      5.3901196000000002      3.6351897499999999      9.1256454900000001
    55   2               0.0138703      6.1061577199999997      1.7668795500000001
    56   2      1.7431729600000001      6.9212523299999997      6.3233582300000002
    57   2             10.85300675      9.0085050399999993      6.7706588300000003
    58   2              3.63269398      1.6757420700000001      3.9607472800000001
    59   2      5.6536037200000004     0.13028107999999999              3.67774724
    60   2      5.4176082000000001     0.28293101999999998     0.88932807999999997
    61   2              3.22882077      1.8076490199999999      1.2696480800000001
    62   2              3.64865577      1.4953898800000001      9.4488124199999994
    63   2      5.4278805500000002             10.54710976      8.9487477299999991
    64   2              0.01039286      8.9055810900000001      9.1965516300000001
    65   2      3.5759232700000001      5.2053948700000001      4.3437482200000002
    66   2      5.2717805599999998      3.6869908100000002      3.8403846700000002
    67   2              5.24004431      3.5974222299999998      1.0877861499999999
    68   2      8.9530381000000006      7.2584462299999997      6.3253708399999997
    69   2      3.6937999700000002      5.3463043600000004      9.9151918000000006
    70   2      5.3366685599999997      3.3210133100000001      6.4645306700000003
    71   2      10.764142639999999      5.4071123500000002      9.6637110699999997
    72   2      9.1033653700000006             10.81101679      6.3117196699999996
    73   2      1.7610925900000001              3.56788595      6.2253053200000004
    74   2      7.1267616900000004              2.30439405      1.8556560200000001
    75   2      9.0070884299999996     0.34720440000000002     0.58863628000000001
    76   2              7.51536442      9.3392294200000006      4.2310602800000003
    77   2      7.6739700500000003      1.8860775400000001      4.5112818900000002
    78   2      3.3353295200000002      9.1558128399999994      6.5339522600000004
    79   2      8.8652159000000008      7.2207970299999999      8.7709581500000002
    80   2              7.02578791              1.78175561      9.8021313600000006
    81   2      7.5795479600000002      8.9900781399999996      9.8587442999999997
    82   2      5.1951060900000003      6.8687325599999998      9.2343816000000007
    83   2      9.1621968999999996      7.3514769099999997      3.6056118399999999
    84   2      5.1501339000000002      7.3204670500000004              6.38858806
    85   2              7.29463609      9.1403648799999999      1.7083263099999999
    86   2      9.0429638499999996              7.37419856              0.65198497
    87   2              7.49053594      5.3610226499999998      9.5970306700000005
    88   2      3.4552560799999998      8.8952024699999992      8.9780769399999993
    89   2      9.2679935100000002             10.64436617      8.7332968999999991
    90   2      7.1144219399999997      5.6026407899999997      6.7530733500000002
    91   2      5.4950583499999999      10.521172529999999      5.9126912000000003
    92   2      10.596628689999999      5.7639865099999996      7.0894444600000002
    93   2              0.05738095      9.0454026499999998      4.1770340600000004
    94   2      2.0738688600000001      7.3503473499999998              3.43628796
    95   2      3.7800718899999999      8.9040943600000002      3.8908019899999999
    96   2      3.3271738700000002      5.8527761299999996      1.8140812900000001
    97   2      5.4825005899999999      6.9666572799999997      1.2011029600000001
    98   2      9.2839049100000004              0.21448232      3.3648252599999999
    99   2      9.0537138699999993      3.3137462000000002      8.6183333999999991
   100   2      7.3856607299999997      5.4541596099999996              1.46851153
   101   2      9.4454270200000003      3.6225081800000001     0.99136349999999995
   102   2      9.6574212300000006      3.6446272500000001              3.50378021
   103   2      7.5606619999999998      5.5698746799999999              4.10068608
   104   2      4.0610187800000004      9.1255293599999998              1.19428504
   105   2      9.0399378000000006              3.84797827              6.17312408
   106   2      7.1987535600000001              1.75573073      7.0014118999999999
   107   2      1.7117193799999999              3.44527845      8.8382608499999993
   108   2      7.0771835999999997      8.9440388399999993      6.6651700800000002
