188
Lattice="13.261194599947164 0.0 0.0 -6.630597299973582 11.484526053419243 0.0 0.0 0.0 15.78161724561312" Properties=species:S:1:pos:R:3:forces:R:3 energy=-1538.6813724939493 stress="0.02225705875004991 0.0003103372739374147 -0.0008263418536795065 0.0003103372739374147 0.021555586332037528 -4.866235360557094e-05 -0.0008263418536795065 -4.866235360557094e-05 -0.022570150496832923" free_energy=-199726.4473561727 pbc="T T T"
Hf       1.65842378       1.03641275       1.35863724       0.20957422      -0.93128365      -0.26492673
Hf       0.08840310       1.91130415       3.91362121      -0.45274298      -0.59622134      -0.11531732
O        3.30767346      -0.04736236       2.63931721       0.40419130       0.43984633       1.14738178
O        3.27317579       0.07793339       5.27258201      -0.24870564       0.18037420      -0.20688433
Hf       1.69271192       0.92616581       6.62473055      -0.36735433       0.26516353      -0.21179951
Hf      -0.00089248       1.85343893       9.23037361      -0.03725117       0.16922924      -0.38033841
O        3.30550261       0.10102908       7.94031001      -0.14656882      -0.38659416      -0.61439158
O        3.34300526      -0.11906564      10.52798548       0.07951908      -0.19742447      -0.20753353
Hf       1.59771801       0.90831624      11.88669167      -0.12136790       0.22176793       0.12293370
Hf       0.03431334       2.07217835      14.50610781      -0.59217622      -0.26859363      -0.10598190
O        3.25066757       0.05597285      13.21744857      -0.16101816      -0.10198718      -0.30339609
O        3.47590896      -0.16362590      16.04004875       0.17393873      -0.77181740      -1.40297515
Hf       0.07449609       3.90043030       1.32084150      -0.99869900      -0.11870269       0.10722477
Hf      -1.69346251       4.75641256       3.99937207       0.36850747       0.07959081      -0.82480861
O        1.69455258       2.95104546       2.58951214       0.16792183       0.24753861       0.80353324
O        1.61080681       2.88928543       5.38194841      -0.38307432      -0.80331444      -0.93531462
Hf      -0.00665182       3.98103051       6.68152957      -0.18886398      -0.61541385       0.30625078
Hf      -1.66819197       4.81830521       9.22815103       0.62080623       0.23970215       0.11100558
O        1.75822488       2.88727503       7.86387911      -0.36229106       0.20901063       0.46143023
O        1.76626249       2.79189919      10.52067856      -0.69110610       0.22260637      -0.06603878
Hf       0.04465177       3.78726722      11.94731787      -0.06449304       0.34179628      -1.60951186
Hf      -1.66726900       4.87004641      14.44951433       0.34342945      -0.47153389       0.50558815
O        1.76104951       2.96281477      13.14356780       0.05207564       0.12708012       0.14899286
O        1.60632055       2.78242539      15.80294788      -0.00684916       0.57363626       0.02857087
Hf      -1.64867415       6.71602857       1.20592264       0.61216886       0.22527492       0.87981916
Hf      -3.36115851       7.60566642       3.85910576       0.68838356       0.16950795       0.90894487
O       -0.08335059       5.74122865       2.60986542      -0.00739192       0.07445221      -0.04433533
O       -0.07910170       5.72820881       5.19879805      -0.67130038       0.12572077       0.97692227
Hf      -1.73766207       6.69021167       6.61463745       0.57527970       0.08786719       0.16039801
Hf      -3.27111368       7.63545902       9.18169044      -0.20628938       0.40226349      -0.03608029
O        0.09599248       5.69873183       8.11965838       0.38560505      -0.16182086      -1.87943399
O        0.02313018       5.69054835      10.49164450       0.16579424      -0.31817659       0.45518528
Hf      -1.91595353       6.84220353      11.77378321       1.18927431      -1.44473603       0.36425796
Hf      -3.25230798       7.71350778      14.55153934      -0.48275136       0.28728993      -0.47353344
O       -0.03865506       5.68004283      13.05024082       0.08071438       0.42991622       0.72865346
O        0.13097551       5.66749906      15.75328072       0.37049211       0.18930698       0.06496509
Hf      -3.40995838       9.58437855       1.51513922       0.59058882       0.24614328      -1.90626782
Hf      -4.98789732      10.52955295       3.95970651      -0.62778729       0.43710605       0.56269390
O       -1.72780502       8.72242477       2.63754552       0.32314807      -0.10111352       0.00255645
O       -1.62124337       8.61473193       5.26600844       0.18729304      -0.40179452       0.04646909
Hf      -3.30487270       9.56199895       6.48397490      -0.82219997      -0.70034330       0.78543911
Hf      -4.88982283      10.51582894       9.23126741      -0.32936423      -0.42958609      -0.02045775
O       -1.65628210       8.71489108       7.96188332       0.08020942      -0.31773564      -0.98637750
O       -1.62255623       8.56079733      10.48628167      -0.12924396       0.70622856       0.32208004
Hf      -3.27348610       9.50995407      11.82547534      -0.97303965       0.32131950      -0.03471401
Hf      -5.07162850      10.52534252      14.48505434      -0.27286012       0.42974678       0.32113361
O       -1.77017321       8.61391769      13.23526233       0.31623155      -0.50671250      -0.81650523
O       -1.64181148       8.78543268      15.76801922      -0.03681743       0.39869531       0.40976931
Hf       5.02432450       1.08387059       1.28786224      -0.89895511       0.18602240       0.47558158
Hf       3.26115850       1.88844716       3.92020008       0.71096453       0.02939208       0.65151523
O        6.72676085      -0.16771831       2.62516752      -0.35428465       0.19177319       0.20862625
O        6.67812277      -0.04078348       5.19697464       0.38553820      -0.30700900       0.73681132
Hf       5.06756925       0.91321493       6.53816943      -0.18037523       0.31784903      -0.05671005
Hf       3.33532703       1.95356227       9.15936787      -0.05468865       0.19965670       0.54476277
O        6.60601768       0.00907861       7.98246337       0.57474260      -0.46073166      -1.15532366
O        6.62081850       0.06442156      10.50386867       0.07916607       0.08790679      -0.03793946
Hf       4.78923932       0.97766433      11.75971839       0.95537463      -0.23406912       0.52313748
Hf       3.38133409       2.07801461      14.45374200      -0.05838307      -0.28645123       0.46412680
O        6.69051801       0.01899534      13.07057951       0.23268818      -0.14411085       0.59560685
O        6.59991355      -0.01238065      15.80042427      -0.90405335      -0.49443831      -0.01300927
Hf       3.31596436       3.79781915       1.37788055       0.36427570       0.46415843      -0.41071702
Hf       1.52776919       4.73062484       4.20110269       0.67399412       0.37858748      -1.91837926
O        4.95512626       2.76689653       2.75932704      -0.26424873       0.11569373      -0.89143335
O        5.05133224       2.90179073       5.26872168      -0.18502044       0.29295021       0.42192291
Hf       3.28942208       3.88119626       6.50560524       0.30822513      -0.43312418       0.06646533
Hf       1.80862803       4.73229177       9.19773648      -0.69655478       0.06789641       0.36175499
O        5.06192131       2.97845502       7.96737080      -0.44843947      -0.03528633      -0.60377807
O        5.11033926       2.92797098      10.61887638       0.06794294       0.14819402      -1.06187486
Hf       3.36968414       3.92859310      11.84252526      -0.38085700      -0.98781706      -0.76617254
Hf       1.59223716       4.85356142      14.35198090       0.14074682      -0.06542069       1.08790960
O        4.96807581       2.98905735      13.13631658      -0.21051961      -0.11906547       0.38446888
O        5.07589198       2.95539381      15.78709412      -0.00485244       0.14870001       0.35989531
Hf       1.70133966       6.87684840       1.26966655      -0.70563592      -1.03575785       0.94021669
Hf       0.08100999       7.62815077       3.99220705      -0.31065791       0.01660110      -0.67761115
O        3.17508804       5.84049002       2.54802052       0.35606925      -0.51100470       0.60150470
O        3.27773764       5.92108361       5.22669563       0.62509997      -0.72109673       0.49144246
Hf       1.70829781       6.88621346       6.60745254      -0.10322156      -0.18190066       0.40265378
Hf       0.10188841       7.56642256       9.22208934      -0.21463338      -0.01367724       0.21774210
O        3.37913008       5.78365652       7.97935229      -0.29438514      -0.60225083      -1.25643152
O        3.40410887       5.70822287      10.30576366       0.26450018       0.10352290       2.21336578
Hf       1.61533020       6.75616225      11.73973907      -1.01779613       0.03577433       0.62341333
Hf      -0.03009496       7.69511052      14.51710664       0.30467315       0.39559790      -0.90891016
O        3.30807793       5.68321225      13.15556123       0.47224172       0.61787697       0.17463138
O        3.18388419       5.67431267      15.83922918      -0.21877003      -0.74915313      -0.46107182
Hf       0.10814637       9.53761029       1.33082984      -0.70771131      -0.42087313      -0.20099676
Hf      -1.82143834      10.51064912       3.99930974       0.84653597      -0.07710893      -0.13300857
O        1.83579756       8.62143812       2.72796962      -0.90463853       0.03978808      -0.93951838
O        1.68555884       8.66330901       5.27950303      -0.27611694       0.08347369       0.21813702
Hf      -0.02301348       9.42234266       6.58007613       0.20183880       0.49755500       0.19040099
Hf      -1.72732762      10.53586793       9.09373689       0.36281377       0.13723057       1.10186092
O        1.67103517       8.77300827       8.01216579      -0.45739128      -0.20162694      -0.93356036
O        1.74475416       8.64933304      10.51607162      -0.08793070       0.47046431       0.26338715
Hf      -0.02784320       9.56777951      11.75699321       0.68346067       0.44196569       0.56024441
Hf      -1.63399003      10.64408061      14.36001453      -0.12747838       0.22156019       0.58203194
O        1.64023605       8.56386597      13.17900437      -0.03897072      -0.56972561      -0.54166844
O        1.76174705       8.69727359      15.73070222      -0.95341545      -0.01787559       0.74744000
Hf       8.09930510       0.89397293       1.31971563       0.85238575       0.49769178       0.25628396
Hf       6.75007934       1.82496051       4.07793006      -0.62111296       0.83365423      -1.47794569
O        9.95448920       0.03616593       2.62166789      -0.24687090      -0.08326106      -0.20355424
O        9.93866064       0.01242441       5.23088351       0.06322985      -0.22488642      -0.00865151
Hf       8.25699264       1.01821309       6.54117441       0.73771249      -1.01235156       0.27961724
Hf       6.64990162       1.95392696       9.07071015      -0.02344280      -0.45725604       1.76829008
O        9.93751487       0.03134283       7.90893005      -0.07570279       0.23609952      -0.32681729
O        9.94877496      -0.04930380      10.49881350      -0.21909681      -0.03830044       0.29313661
Hf       8.30962367       0.94092287      11.82215872      -0.27727779      -0.45476927      -0.52618963
Hf       6.70066150       1.97828512      14.46439870      -0.32984194      -0.11711761      -0.05520236
O       10.07782627       0.04937010      13.11699104      -0.70065955      -0.01278610       0.56908849
O       10.00994752      -0.04825218      15.81749143       0.34634739      -0.26271172      -0.53987870
Hf       6.83040107       3.86290377       1.30673292      -0.80769612       0.02487028       0.61877788
Hf       4.95063071       4.77123062       3.84094190       0.28356697      -0.76083571       0.67758930
O        8.32752231       2.91184537       2.76451748       0.37258242      -0.35333205      -0.58719960
O        8.30404336       2.91529195       5.31874291      -0.81217909       0.15959634       0.01379448
Hf       6.74223136       3.80115169       6.63745466      -1.13835412       0.37506739      -1.10894405
Hf       4.96239074       4.75255355       9.17297518       0.01192092      -0.13094526       0.38403745
O        8.33322992       2.79647696       7.92177749       0.60983276      -0.36993084      -0.81667158
O        8.38838191       2.93227954      10.44588940      -0.43172730       0.47317451       0.75162370
Hf       6.62983213       3.78050003      11.94432748      -0.13898175       0.23689322      -0.78636933
Hf       4.88505676       4.83680059      14.58919317       0.76617820      -0.15951870      -0.33682866
O        8.26770106       2.77365311      13.08095375       0.50771780      -0.48616167       0.54918121
O        8.34628557       2.90008534      15.95758269       0.47362600      -0.54647641      -0.90595777
Hf       4.87769547       6.68899164       1.26101230       0.81579818       0.20142459       0.94482359
Hf       3.41653726       7.55389339       3.87701633      -1.15709875       1.21255231       0.06034405
O        6.51570629       5.73953122       2.51082287      -0.04869592      -0.08354440       0.98751419
O        6.70200883       5.83137295       5.27091906       0.15838407      -0.33514972      -0.23670553
Hf       4.79592164       6.73173778       6.64356277       1.98593345      -0.80827796      -0.83885763
Hf       3.40296708       7.73254820       9.23499381      -0.94961150      -0.11790308      -0.29339450
O        6.48079487       5.71863290       7.90992198      -0.56817986       0.44713489      -0.74180954
O        6.56140039       5.67383791      10.43067616       0.49431901      -0.31711806       0.72817627
Hf       4.89730082       6.67515491      11.73780957       0.72668169       0.08607539      -0.04016423
Hf       3.20984298       7.49622973      14.66173986       0.06910123       1.03246093      -2.64729472
O        6.51260449       5.76140026      13.16672583      -0.80101536       0.17141673       0.01704050
O        6.62208494       5.70354962      15.86690264       0.58100992      -0.24240798      -1.07767738
Hf       3.30252016       9.55357942       1.30465887       0.56066504       0.85005504       1.01136143
Hf       1.72693641      10.55113157       3.93320666       0.16923927      -0.03712981       0.49684615
Hf       3.54476506       9.57100463       6.45067206      -1.54939613       0.16056899       0.64761975
Hf       1.60088743      10.54963438       9.20817172       0.36388026       0.32450561       0.24969808
Hf       3.41975310       9.53072640      11.83739451      -1.11731402       0.14052416      -0.42396154
Hf       1.74339754      10.66589660      14.46026916      -0.91762055      -1.39782317      -0.55491117
O        4.91682925       8.47244727      13.08517081       0.01650340      -0.19476749       0.58323393
O        4.83286202       8.56514567      15.88340885       0.27329850       0.57879209      -0.56925432
Hf      11.61751860       0.87923577       1.25176394       0.75023685       0.35346524       0.71565011
Hf      10.10148292       2.00136225       3.98731764      -0.95550755      -0.67300399      -0.40787646
O       13.14918392      -0.03609034       2.61790834       0.53866077       0.52112327       0.02619466
O       13.22154495      -0.03386246       5.19449347       0.31346273       0.62914997       0.39464634
Hf      11.59429029       0.83528684       6.54306413       0.03372285       0.12195205      -0.15810048
Hf       9.95913593       1.95147231       9.23910080       0.02879944      -0.64924186      -0.02407375
O       13.26692344      -0.08378953       7.81614014       0.56013796       0.27735955       0.70251923
O       13.24125242       0.03591264      10.63954660      -0.04283226       0.16027280      -0.76497364
Hf      11.65658077       0.97052318      12.01173678       0.51662950       0.10217230      -1.21685582
Hf       9.87205762       1.73388395      14.55221831       0.25070133       1.92570793      -0.41874606
O       13.23905504      -0.19741940      13.15875850       0.01474271      -0.20776930       0.28649417
O       13.30801723      -0.03198733      15.89039617       0.00567982       0.30279239      -0.50391462
Hf       9.90446135       3.99686172       1.27081100       0.88412782       0.13535033      -0.40194030
Hf       8.18600812       4.92565060       3.87116947       0.09430498      -0.80650570       0.38754212
O       11.46144760       2.89433927       2.50302263      -0.35373340       0.41420935       0.94293486
O       11.72463590       2.83368389       5.25828910       0.51879051      -0.04578235      -0.12712845
Hf       9.94634948       3.62168529       6.50831715       0.72388870       0.82868660       0.47682137
Hf       8.14671520       4.92766630       8.94223305       1.35568459      -0.52792127       1.89235352
O       11.52368238       2.79853509       7.80906529      -0.15973827      -0.47605261       0.75606014
O       11.60673857       2.79354225      10.56381855       0.25750704      -0.11837925      -0.16228392
Hf       9.91128291       3.81119307      11.85624397      -0.11060989      -0.01785117      -0.12267633
Hf       8.26164599       4.92447698      14.23714956       0.31471794      -0.00027999       1.44620748
O       11.69443220       2.87697506      13.16650702      -0.44195618       0.37251942       0.09465876
O       11.43925631       2.68018026      15.81932015      -0.10433280      -0.47336632      -0.53493241
Hf       8.19633726       6.74475232       1.35575558      -0.34268717      -0.74477274      -0.19123300
Hf       6.69804374       7.75983841       4.05042104      -0.66379173      -0.95886978      -0.54777070
O       10.00010506       5.79796535       2.60437264       0.56128210      -0.76053797       0.13735604
O       10.05646249       5.72988768       5.25155904      -0.69682295       0.21373966      -0.08625100
Hf       8.41738944       6.65985945       6.51790897      -0.21939995       0.50426609       0.27125267
Hf       6.68061587       7.57608732       9.14236171       0.30942995       0.69874793       0.41742220
O        9.94150915       5.75362257       7.87894516       0.15226639       0.19481583       0.24226605
O        9.86928868       5.70302050      10.56557036      -0.50926560      -0.17647486      -0.55297616
Hf       8.13300843       6.75482552      11.90365804       0.47588240      -0.44923034      -0.94393193
Hf       6.67325326       7.63021819      14.54167566      -0.49056263      -0.00687487      -0.41114254
O        9.99647017       5.72255159      13.09466582       0.46116849       0.20180203       0.65284294
O        9.89687462       5.96391726      15.84495006      -0.75315839      -0.34578561      -0.36593560
Hf       6.69454676       9.52932602       1.45900459      -0.49213614       0.59056028      -1.27961927
Hf       4.98999922      10.44556715       3.73564271      -0.03280316       0.90826405       1.85808098
O        8.33061614       8.59106203       2.67182703      -0.23951240       0.08825029      -0.12998495
O        8.37013185       8.52490060       5.29831669       0.00603618       0.19993515      -0.98811145
Hf       6.38933241       9.47088261       6.61646352       1.40562595       0.68018303      -0.65566833
Hf       5.03775278      10.50059315       9.14457633      -0.58535971       0.92540559       1.10149042
O        8.20204753       8.58536502       7.75797256      -0.02488699       0.12342941       0.96605679
O        8.26062356       8.52517908      10.53894188      -0.10109063       0.50326465      -0.67926643
Hf       6.63403195       9.44288823      11.90306792      -0.06236571       0.78771145      -1.34091900
Hf       4.80130170      10.30414712      14.45442761       1.72204648      -0.17205051       0.30800505
O        8.36131979       8.58249264      13.05897862       0.30736716       0.30317831       0.95244460
O        8.29370493       8.59310160      15.71250520       0.35716968       0.28074852       0.67495572
