(written by ASE)

188 atoms
2 atom types

0.0      13.261194599947164  xlo xhi
0.0      11.484526053419245  ylo yhi
0.0       15.78161724561312  zlo zhi
    -6.6305972999735818                       0                       0  xy xz yz

Masses

     1      178.48999995408445 # Hf
     2      15.998999995884349 # O

Atoms # atomic

     1   1      1.6584237799999999      1.0364127499999998      1.3586372399999997
     2   1    0.088403099999999998      1.9113041499999999      3.9136212099999996
     3   2      3.3076734600000002   -0.047362359999999992      2.6393172099999997
     4   2      3.2731757899999998    0.077933389999999991      5.2725820099999989
     5   1              1.69271192     0.92616580999999987      6.6247305499999989
     6   1 -0.00089247999999999997      1.8534389299999998      9.2303736099999973
     7   2              3.30550261     0.10102907999999998      7.9403100099999993
     8   2              3.34300526    -0.11906563999999999      10.527985479999998
     9   1      1.5977180099999999     0.90831623999999989      11.886691669999998
    10   1    0.034313339999999998      2.0721783499999997      14.506107809999998
    11   2      3.2506675700000001    0.055972849999999991      13.217448569999998
    12   2      3.4759089599999999    -0.16362589999999996      16.040048749999997
    13   1    0.074496090000000001      3.9004302999999996      1.3208414999999998
    14   1             -1.69346251      4.7564125599999993      3.9993720699999997
    15   2      1.6945525800000001      2.9510454599999996      2.5895121399999996
    16   2      1.6108068099999999      2.8892854299999997      5.3819484099999988
    17   1  -0.0066518200000000001      3.9810305099999996      6.6815295699999995
    18   1     -1.6681919700000001      4.8183052099999992      9.2281510299999976
    19   2              1.75822488      2.8872750299999996      7.8638791099999992
    20   2      1.7662624899999999      2.7918991899999996      10.520678559999999
    21   1              0.04465177      3.7872672199999995      11.947317869999997
    22   1     -1.6672689999999999      4.8700464099999987      14.449514329999998
    23   2      1.7610495100000001      2.9628147699999996      13.143567799999998
    24   2              1.60632055      2.7824253899999998      15.802947879999998
    25   1     -1.6486741499999999      6.7160285699999989      1.2059226399999998
    26   1     -3.3611585100000001      7.6056664199999995      3.8591057599999994
    27   2   -0.083350590000000002      5.7412286499999992      2.6098654199999998
    28   2   -0.079101699999999997       5.728208809999999      5.1987980499999988
    29   1     -1.7376620700000001      6.6902116699999992      6.6146374499999991
    30   1             -3.27111368       7.635459019999999      9.1816904399999988
    31   2    0.095992480000000005      5.6987318299999989      8.1196583799999988
    32   2              0.02313018      5.6905483499999994      10.491644499999998
    33   1     -1.9159535299999999       6.842203529999999      11.773783209999998
    34   1     -3.2523079799999999      7.7135077799999987      14.551539339999998
    35   2   -0.038655059999999998      5.6800428299999988      13.050240819999999
    36   2     0.13097550999999999       5.667499059999999      15.753280719999998
    37   1             -3.40995838      9.5843785499999985      1.5151392199999998
    38   1     -4.9878973200000001      10.529552949999998      3.9597065099999997
    39   2     -1.7278050199999999      8.7224247699999982      2.6375455199999998
    40   2             -1.62124337      8.6147319299999978      5.2660084399999993
    41   1     -3.3048727000000002      9.5619989499999978      6.4839748999999989
    42   1             -4.88982283      10.515828939999999      9.2312674099999974
    43   2     -1.6562821000000001      8.7148910799999975      7.9618833199999992
    44   2             -1.62255623       8.560797329999998      10.486281669999999
    45   1              -3.2734861      9.5099540699999974      11.825475339999999
    46   1     -5.0716285000000001      10.525342519999999      14.485054339999998
    47   2     -1.7701732100000001      8.6139176899999974      13.235262329999998
    48   2     -1.6418114800000001      8.7854326799999978      15.768019219999998
    49   1      5.0243244999999996      1.0838705899999999      1.2878622399999997
    50   1      3.2611585000000001      1.8884471599999997      3.9202000799999994
    51   2      6.7267608499999998    -0.16771830999999998      2.6251675199999998
    52   2      6.6781227699999999    -0.04078347999999999      5.1969746399999988
    53   1              5.06756925     0.91321492999999987      6.5381694299999991
    54   1      3.3353270300000002      1.9535622699999997      9.1593678699999987
    55   2      6.6060176799999999   0.0090786099999999991      7.9824633699999987
    56   2      6.6208185000000004    0.064421559999999989      10.503868669999997
    57   1      4.7892393200000001     0.97766432999999986      11.759718389999998
    58   1      3.3813340900000002      2.0780146099999994      14.453741999999998
    59   2      6.6905180099999999    0.018995339999999996      13.070579509999998
    60   2      6.5999135500000001   -0.012380649999999998      15.800424269999999
    61   1      3.3159643600000002      3.7978191499999996      1.3778805499999998
    62   1      1.5277691900000001      4.7306248399999991       4.201102689999999
    63   2      4.9551262600000001      2.7668965299999995      2.7593270399999996
    64   2      5.0513322399999998      2.9017907299999997      5.2687216799999987
    65   1              3.28942208      3.8811962599999994      6.5056052399999995
    66   1      1.8086280299999999      4.7322917699999989      9.1977364799999979
    67   2      5.0619213099999998      2.9784550199999997      7.9673707999999994
    68   2      5.1103392599999999      2.9279709799999996      10.618876379999998
    69   1      3.3696841399999999      3.9285930999999996      11.842525259999999
    70   1              1.59223716      4.8535614199999992      14.351980899999997
    71   2      4.9680758100000002      2.9890573499999995      13.136316579999999
    72   2      5.0758919799999997      2.9553938099999995      15.787094119999999
    73   1      1.7013396599999999      6.8768483999999992      1.2696665499999997
    74   1    0.081009990000000004      7.6281507699999995      3.9922070499999998
    75   2      3.1750880399999999      5.8404900199999989      2.5480205199999997
    76   2      3.2777376399999998      5.9210836099999993      5.2266956299999991
    77   1      1.7082978099999999      6.8862134599999987      6.6074525399999988
    78   1              0.10188841      7.5664225599999995      9.2220893399999984
    79   2      3.3791300799999999      5.7836565199999992      7.9793522899999987
    80   2              3.40410887      5.7082228699999993      10.305763659999998
    81   1               1.6153302      6.7561622499999991      11.739739069999999
    82   1             -0.03009496      7.6951105199999992      14.517106639999998
    83   2      3.3080779300000001      5.6832122499999995      13.155561229999998
    84   2      3.1838841900000001      5.6743126699999991      15.839229179999998
    85   1     0.10814637000000001      9.5376102899999982      1.3308298399999998
    86   1             -1.82143834      10.510649119999998      3.9993097399999997
    87   2      1.8357975600000001      8.6214381199999988      2.7279696199999997
    88   2      1.6855588399999999       8.663309009999999       5.279503029999999
    89   1   -0.023013479999999999      9.4223426599999982      6.5800761299999992
    90   1     -1.7273276200000001      10.535867929999998      9.0937368899999989
    91   2      1.6710351699999999      8.7730082699999983      8.0121657899999974
    92   2      1.7447541600000001      8.6493330399999984      10.516071619999998
    93   1   -0.027843199999999999      9.5677795099999976      11.756993209999997
    94   1     -1.6339900300000001      10.644080609999998      14.360014529999999
    95   2      1.6402360499999999      8.5638659699999984      13.179004369999998
    96   2      1.7617470500000001      8.6972735899999982      15.730702219999998
    97   1      8.0993051000000005     0.89397292999999989      1.3197156299999997
    98   1      6.7500793400000001      1.8249605099999997       4.077930059999999
    99   2      9.9544891999999994    0.036165929999999992      2.6216678899999994
   100   2      9.9386606400000002    0.012424409999999999      5.2308835099999991
   101   1              8.25699264      1.0182130899999997      6.5411744099999991
   102   1      6.6499016199999996      1.9539269599999998      9.0707101499999983
   103   2      9.9375148699999993    0.031342829999999995      7.9089300499999995
   104   2      9.9487749599999997   -0.049303799999999995      10.498813499999999
   105   1      8.3096236700000006     0.94092286999999986      11.822158719999997
   106   1      6.7006614999999998      1.9782851199999998      14.464398699999998
   107   2      10.077826269999999    0.049370099999999993      13.116991039999998
   108   2      10.009947520000001   -0.048252179999999992      15.817491429999999
   109   1      6.8304010699999997      3.8629037699999995      1.3067329199999997
   110   1      4.9506307100000004       4.771230619999999      3.8409418999999994
   111   2      8.3275223100000009      2.9118453699999995      2.7645174799999994
   112   2      8.3040433599999997      2.9152919499999994      5.3187429099999992
   113   1      6.7422313599999999      3.8011516899999997      6.6374546599999995
   114   1              4.96239074      4.7525535499999991      9.1729751799999981
   115   2      8.3332299200000008      2.7964769599999997      7.9217774899999993
   116   2      8.3883819099999997      2.9322795399999997      10.445889399999999
   117   1      6.6298321299999996      3.7805000299999993      11.944327479999998
   118   1      4.8850567600000003      4.8368005899999993      14.589193169999998
   119   2      8.2677010600000003      2.7736531099999997      13.080953749999999
   120   2      8.3462855699999992      2.9000853399999995      15.957582689999999
   121   1      4.8776954699999999      6.6889916399999994      1.2610122999999998
   122   1      3.4165372600000001      7.5538933899999989      3.8770163299999996
   123   2      6.5157062899999998       5.739531219999999      2.5108228699999997
   124   2      6.7020088299999996      5.8313729499999996      5.2709190599999989
   125   1      4.7959216400000004      6.7317377799999987      6.6435627699999991
   126   1      3.4029670799999998      7.7325481999999992      9.2349938099999989
   127   2      6.4807948700000004      5.7186328999999994      7.9099219799999991
   128   2      6.5614003900000002      5.6738379099999987      10.430676159999999
   129   1      4.8973008199999999      6.6751549099999989      11.737809569999998
   130   1      3.2098429799999999      7.4962297299999987      14.661739859999999
   131   2      6.5126044900000002      5.7614002599999994      13.166725829999999
   132   2      6.6220849399999997      5.7035496199999995      15.866902639999998
   133   1      3.3025201599999998      9.5535794199999984      1.3046588699999997
   134   1              1.72693641      10.551131569999999      3.9332066599999997
   135   1              3.54476506      9.5710046299999973      6.4506720599999987
   136   1              1.60088743      10.549634379999999      9.2081717199999975
   137   1      3.4197530999999999      9.5307263999999989      11.837394509999998
   138   1      1.7433975399999999      10.665896599999998      14.460269159999998
   139   2      4.9168292500000002      8.4724472699999982      13.085170809999997
   140   2      4.8328620200000003      8.5651456699999979      15.883408849999999
   141   1              11.6175186     0.87923576999999986      1.2517639399999998
   142   1             10.10148292      2.0013622499999997      3.9873176399999997
   143   2             13.14918392   -0.036090339999999992      2.6179083399999996
   144   2             13.22154495    -0.03386245999999999      5.1944934699999994
   145   1             11.59429029     0.83528683999999986      6.5430641299999994
   146   1      9.9591359300000004      1.9514723099999998      9.2391007999999974
   147   2      13.266923439999999   -0.083789529999999987       7.816140139999999
   148   2             13.24125242    0.035912639999999996      10.639546599999997
   149   1             11.65658077     0.97052317999999993      12.011736779999998
   150   1      9.8720576199999996      1.7338839499999998      14.552218309999999
   151   2             13.23905504    -0.19741939999999997      13.158758499999998
   152   2      13.308017230000001   -0.031987329999999994      15.890396169999999
   153   1      9.9044613500000001      3.9968617199999996      1.2708109999999997
   154   1      8.1860081200000003      4.9256505999999991      3.8711694699999994
   155   2              11.4614476      2.8943392699999997      2.5030226299999994
   156   2      11.724635900000001      2.8336838899999996      5.2582890999999989
   157   1      9.9463494800000003      3.6216852899999994       6.508317149999999
   158   1      8.1467151999999992      4.9276662999999994      8.9422330499999987
   159   2             11.52368238      2.7985350899999997      7.8090652899999995
   160   2      11.606738569999999      2.7935422499999993      10.563818549999999
   161   1      9.9112829100000006      3.8111930699999994      11.856243969999998
   162   1      8.2616459899999999      4.9244769799999988      14.237149559999999
   163   2              11.6944322      2.8769750599999995      13.166507019999997
   164   2      11.439256309999999      2.6801802599999998      15.819320149999998
   165   1              8.19633726       6.744752319999999      1.3557555799999998
   166   1      6.6980437400000001      7.7598384099999995      4.0504210399999989
   167   2      10.000105059999999      5.7979653499999992      2.6043726399999994
   168   2      10.056462489999999      5.7298876799999992      5.2515590399999992
   169   1      8.4173894399999991       6.659859449999999      6.5179089699999988
   170   1      6.6806158699999996      7.5760873199999992      9.1423617099999976
   171   2      9.9415091499999999      5.7536225699999992      7.8789451599999989
   172   2      9.8692886800000004      5.7030204999999992      10.565570359999999
   173   1      8.1330084300000003      6.7548255199999989      11.903658039999998
   174   1      6.6732532600000001       7.630218189999999      14.541675659999997
   175   2      9.9964701700000003      5.7225515899999992      13.094665819999998
   176   2      9.8968746200000002      5.9639172599999988      15.844950059999999
   177   1      6.6945467599999997      9.5293260199999974      1.4590045899999997
   178   1      4.9899992199999996      10.445567149999999      3.7356427099999996
   179   2      8.3306161400000001       8.591062029999998      2.6718270299999998
   180   2      8.3701318499999999      8.5249005999999987      5.2983166899999992
   181   1      6.3893324099999997      9.4708826099999985       6.616463519999999
   182   1      5.0377527799999999      10.500593149999998      9.1445763299999978
   183   2      8.2020475299999998      8.5853650199999976      7.7579725599999989
   184   2      8.2606235600000009      8.5251790799999974      10.538941879999998
   185   1      6.6340319499999998      9.4428882299999977      11.903067919999998
   186   1      4.8013016999999998      10.304147119999998      14.454427609999998
   187   2      8.3613197899999996      8.5824926399999981      13.058978619999998
   188   2      8.2937049300000005      8.5931015999999989      15.712505199999999
