LAMMPS (27 Jun 2024)
OMP_NUM_THREADS environment is not set. Defaulting to 1 thread. (src/comm.cpp:98)
  using 1 OpenMP thread(s) per MPI task
Reading data file ...
  orthogonal box = (0 0 0) to (67.266653 66.57672 40.643788)
  5 by 2 by 2 MPI processor grid
  reading atoms ...
  8064 atoms
  read_data CPU = 0.045 seconds
**************** Begin of POD Potentials ****************
species: Hf 
periodic boundary conditions: 1 1 1
number of environment clusters: 8
number of principal compoments: 2
inner cut-off radius: 1
outer cut-off radius: 5
cut-off function type: 1
gaussian_exponents: 
polynomial_degrees: 
bessel polynomial degree: 4
inverse polynomial degree: 10
one-body potential: 1
two-body radial basis functions: 8
three-body radial basis functions: 8
three-body angular degree: 6
four-body radial basis functions: 7
four-body angular degree: 5
five-body radial basis functions: 0
five-body angular degree: 0
six-body radial basis functions: 0
six-body angular degree: 0
seven-body radial basis functions: 0
seven-body angular degree: 0
number of local descriptors per element for one-body potential: 1
number of local descriptors per element for two-body potential: 8
number of local descriptors per element for three-body potential: 56
number of local descriptors per element for four-body potential: 112
number of local descriptors per element for five-body potential: 0
number of local descriptors per element for six-body potential: 0
number of local descriptors per element for seven-body potential: 0
number of local descriptors per element for all potentials: 177
number of global descriptors: 1409
**************** End of POD Potentials ****************

**************** Begin of Model Coefficients ****************
total number of coefficients for POD potential: 1409
total number of elements for PCA projection matrix: 352
total number of elements for PCA centroids: 16
**************** End of Model Coefficients ****************


CITE-CITE-CITE-CITE-CITE-CITE-CITE-CITE-CITE-CITE-CITE-CITE-CITE

Your simulation uses code contributions which should be cited:
- Type Label Framework: https://doi.org/10.1021/acs.jpcb.3c08419
The log file lists these citations in BibTeX format.

CITE-CITE-CITE-CITE-CITE-CITE-CITE-CITE-CITE-CITE-CITE-CITE-CITE

Neighbor list info ...
  update: every = 1 steps, delay = 0 steps, check = no
  max neighbors/atom: 2000, page size: 100000
  master list distance cutoff = 7
  ghost atom cutoff = 7
  binsize = 3.5, bins = 20 20 12
  1 neighbor lists, perpetual/occasional/extra = 1 0 0
  (1) pair pod, perpetual
      attributes: full, newton on
      pair build: full/bin/atomonly
      stencil: full/bin/3d
      bin: standard
Setting up Verlet run ...
  Unit style    : metal
  Current step  : 0
  Time step     : 0.001
Per MPI rank memory allocation (min/avg/max) = 2.638 | 2.639 | 2.64 Mbytes
   Step          Temp          TotEng         PotEng         KinEng         Press          Volume    
         0   300           -58749.802     -59062.469      312.66736      1834.7862      182018.86    
       100   91.523061     -58739.432     -58834.82       95.387581      3728.3235      182018.86    
       200   146.03928     -58705.789     -58857.994      152.20572      4236.2425      182018.86    
       300   184.20468     -58665.955     -58857.937      191.98264      4216.9284      182018.86    
       400   235.1941      -58624.838     -58869.963      245.12507      3941.53        182018.86    
       500   252.79543     -58579.42      -58842.89       263.46961      4797.7384      182018.86    
       600   236.70264     -58534.372     -58781.069      246.69731      5777.6991      182018.86    
       700   252.08511     -58491.545     -58754.274      262.72929      6633.1886      182018.86    
       800   287.65017     -58452.78      -58752.576      299.79607      6680.1764      182018.86    
       900   317.42554     -58421.46      -58752.289      330.82869      6783.0591      182018.86    
      1000   323.01441     -58410.327     -58746.98       336.65355      6953.2628      182018.86    
      1100   302.62906     -58420.724     -58736.131      315.40743      7069.8577      182018.86    
      1200   291.00598     -58438.409     -58741.702      303.29357      6923.6501      182018.86    
      1300   286.76159     -58451.87      -58750.74       298.86997      6651.9716      182018.86    
      1400   299.94257     -58448.536     -58761.144      312.60751      6590.3683      182018.86    
      1500   306.12134     -58435.727     -58754.774      319.04717      6625.4695      182018.86    
      1600   311.02192     -58421.855     -58746.01       324.15468      6911.6443      182018.86    
      1700   299.0771      -58420.883     -58732.589      311.70549      7143.506       182018.86    
      1800   292.15127     -58430.6       -58735.088      304.48723      7067.4297      182018.86    
      1900   301.81494     -58441.233     -58755.792      314.55894      6696.4817      182018.86    
      2000   296.20266     -58449.644     -58758.353      308.70968      6524.3632      182018.86    
      2100   300.33292     -58442.197     -58755.211      313.01434      6681.7375      182018.86    
      2200   299.67839     -58429.738     -58742.07       312.33218      6969.1769      182018.86    
      2300   296.6509      -58421.566     -58730.743      309.17685      7137.2233      182018.86    
      2400   309.57707     -58423.128     -58745.777      322.64882      7006.7227      182018.86    
      2500   299.59748     -58436.657     -58748.904      312.24784      6671.2917      182018.86    
      2600   304.35347     -58442.885     -58760.089      317.20466      6607.619       182018.86    
      2700   285.88825     -58447.217     -58745.176      297.95975      6838.3409      182018.86    
      2800   298.80419     -58437.421     -58748.842      311.42106      6778.1055      182018.86    
      2900   305.35047     -58427.897     -58746.141      318.24375      6923.9108      182018.86    
      3000   303.70951     -58423.387     -58739.92       316.53351      6910.1809      182018.86    
      3100   308.22837     -58425.26      -58746.503      321.24318      6957.6832      182018.86    
      3200   297.94397     -58437.062     -58747.587      310.52452      6793.1242      182018.86    
      3300   290.22027     -58445.702     -58748.176      302.47469      6797.8443      182018.86    
      3400   296.48363     -58445.119     -58754.121      309.00252      6648.7067      182018.86    
      3500   300.97823     -58436.177     -58749.863      313.6869       6765.3226      182018.86    
      3600   307.49167     -58424.512     -58744.988      320.47537      6924.4349      182018.86    
      3700   301.10905     -58424.369     -58738.192      313.82324      6991.573       182018.86    
      3800   296.38532     -58432.333     -58741.233      308.90005      6962.9229      182018.86    
      3900   298.10908     -58441.759     -58752.456      310.6966       6691.1312      182018.86    
      4000   299.12732     -58443.524     -58755.282      311.75784      6625.6599      182018.86    
      4100   297.61798     -58438.155     -58748.34       310.18476      6812.1421      182018.86    
      4200   300.79192     -58430.63      -58744.123      313.49273      6862.624       182018.86    
      4300   301.21832     -58426.898     -58740.835      313.93713      7018.1605      182018.86    
      4400   302.04291     -58428.899     -58743.695      314.79654      6865.5808      182018.86    
      4500   304.87179     -58432.58      -58750.325      317.74486      6809.2173      182018.86    
      4600   294.40434     -58439.113     -58745.948      306.83543      6768.5364      182018.86    
      4700   296.88594     -58441.133     -58750.555      309.42181      6786.8424      182018.86    
      4800   301.22987     -58438.196     -58752.145      313.94917      6733.5925      182018.86    
      4900   299.59788     -58433.961     -58746.21       312.24827      6853.4389      182018.86    
      5000   302.2787      -58430.357     -58745.399      315.04228      6880.7287      182018.86    
      5100   298.89575     -58430.332     -58741.849      311.51649      6909.704       182018.86    
      5200   305.4516      -58431.738     -58750.088      318.34916      6804.5754      182018.86    
      5300   297.18077     -58437.031     -58746.76       309.72909      6824.6012      182018.86    
      5400   295.39865     -58438.342     -58746.213      307.87172      6803.3262      182018.86    
      5500   303.91636     -58435.437     -58752.186      316.74909      6795.1267      182018.86    
      5600   302.01977     -58433.453     -58748.225      314.77242      6843.0664      182018.86    
      5700   297.5656      -58432.548     -58742.678      310.13018      6925.3777      182018.86    
      5800   297.75726     -58433.35      -58743.68       310.32993      6886.4024      182018.86    
      5900   302.73642     -58434.605     -58750.124      315.51932      6767.9132      182018.86    
      6000   301.22152     -58436.123     -58750.063      313.94046      6760.9185      182018.86    
      6100   295.97198     -58437.42      -58745.889      308.46926      6855.4993      182018.86    
      6200   299.96826     -58434.083     -58746.718      312.63428      6817.3013      182018.86    
      6300   301.54966     -58430.328     -58744.61       314.28246      6919.767       182018.86    
      6400   298.487       -58431.943     -58743.033      311.09048      6894.3669      182018.86    
      6500   305.44829     -58433.117     -58751.462      318.34571      6823.876       182018.86    
      6600   292.57139     -58438.825     -58743.75       304.92509      6848.9406      182018.86    
      6700   301.75636     -58438.97      -58753.468      314.49788      6725.5292      182018.86    
      6800   299.90005     -58436.674     -58749.238      312.5632       6820.7837      182018.86    
      6900   297.79738     -58432.522     -58742.894      310.37174      6904.1027      182018.86    
      7000   304.39894     -58429.392     -58746.644      317.25205      6867.0201      182018.86    
      7100   304.00511     -58430.617     -58747.458      316.84159      6818.9793      182018.86    
      7200   297.43086     -58436.473     -58746.463      309.98974      6812.898       182018.86    
      7300   296.46409     -58439.699     -58748.681      308.98216      6762.7035      182018.86    
      7400   300.17048     -58437.121     -58749.967      312.84504      6784.158       182018.86    
      7500   302.49936     -58433.107     -58748.379      315.27226      6852.1033      182018.86    
      7600   299.17647     -58430.966     -58742.775      311.80906      6930.0402      182018.86    
      7700   302.44501     -58429.918     -58745.133      315.21562      6882.502       182018.86    
      7800   297.71577     -58433.608     -58743.895      310.28668      6864.8438      182018.86    
      7900   301.49078     -58436.525     -58750.746      314.22109      6743.1093      182018.86    
      8000   294.68289     -58439.546     -58746.671      307.12575      6792.98        182018.86    
      8100   303.86003     -58435.064     -58751.754      316.69038      6755.0776      182018.86    
      8200   299.65536     -58433.359     -58745.667      312.30817      6852.1734      182018.86    
      8300   301.90878     -58432.286     -58746.943      314.65674      6830.0148      182018.86    
      8400   298.97908     -58433.36      -58744.964      311.60334      6856.176       182018.86    
      8500   300.30523     -58434.214     -58747.2        312.98548      6825.0377      182018.86    
      8600   301.97154     -58434.179     -58748.901      314.72215      6834.2819      182018.86    
      8700   298.99491     -58435.32      -58746.94       311.61983      6833.0942      182018.86    
      8800   301.71069     -58434.553     -58749.003      314.45029      6836.9668      182018.86    
      8900   300.78349     -58433.796     -58747.28       313.48394      6847.2208      182018.86    
      9000   297.4656      -58434.351     -58744.377      310.02595      6882.5936      182018.86    
      9100   299.83232     -58434.9       -58747.393      312.49261      6800.2855      182018.86    
      9200   302.09618     -58434.843     -58749.695      314.85206      6764.8043      182018.86    
      9300   301.3233      -58434.114     -58748.16       314.04654      6823.8989      182018.86    
      9400   297.98165     -58434.081     -58744.645      310.5638       6907.4721      182018.86    
      9500   297.25684     -58434.474     -58744.283      309.80838      6832.2074      182018.86    
      9600   304.81263     -58434.192     -58751.875      317.6832       6745.061       182018.86    
      9700   300.15296     -58435.382     -58748.209      312.82678      6812.9588      182018.86    
      9800   293.22697     -58436.066     -58741.674      305.60834      6962.6594      182018.86    
      9900   302.52781     -58433.613     -58748.914      315.30191      6785.1087      182018.86    
     10000   298.71079     -58433.567     -58744.891      311.32372      6773.6184      182018.86    
     10100   302.1694      -58431.607     -58746.535      314.92837      6886.9232      182018.86    
     10200   297.26775     -58433.469     -58743.289      309.81975      6911.2274      182018.86    
     10300   301.6044      -58435.392     -58749.732      314.33951      6807.7294      182018.86    
     10400   298.35043     -58438.131     -58749.079      310.94814      6759.7281      182018.86    
     10500   297.80165     -58438.431     -58748.808      310.37619      6811.5005      182018.86    
     10600   299.29962     -58434.613     -58746.551      311.93742      6817.7232      182018.86    
     10700   301.60085     -58429.687     -58744.023      314.33581      6887.9985      182018.86    
     10800   301.3392      -58429.533     -58743.596      314.06312      6878.2262      182018.86    
     10900   298.01722     -58434.97      -58745.571      310.60087      6800.3082      182018.86    
     11000   301.55003     -58438.496     -58752.778      314.28284      6690.9799      182018.86    
     11100   297.89897     -58436.917     -58747.394      310.47762      6802.6072      182018.86    
     11200   298.82164     -58434.693     -58746.132      311.43925      6787.3071      182018.86    
     11300   300.2746      -58433.684     -58746.637      312.95356      6854.9319      182018.86    
     11400   303.45092     -58431.216     -58747.48       316.264        6791.6893      182018.86    
     11500   301.5966      -58429.817     -58744.148      314.33138      6910.1484      182018.86    
     11600   299.91991     -58432.027     -58744.611      312.58389      6825.9232      182018.86    
     11700   299.25403     -58437.443     -58749.333      311.8899       6802.3058      182018.86    
     11800   296.03663     -58440.045     -58748.581      308.53664      6770.5314      182018.86    
     11900   300.08186     -58435.717     -58748.469      312.75269      6796.232       182018.86    
     12000   299.21664     -58433.069     -58744.92       311.85093      6893.705       182018.86    
     12100   303.30984     -58433.565     -58749.682      316.11696      6814.2889      182018.86    
     12200   295.90996     -58435.371     -58743.776      308.40463      6852.4534      182018.86    
     12300   300.87823     -58432.753     -58746.335      313.58268      6857.5154      182018.86    
     12400   303.34652     -58433.207     -58749.362      316.15519      6813.0551      182018.86    
     12500   296.97637     -58437.206     -58746.722      309.51607      6789.7384      182018.86    
     12600   299.72348     -58437.327     -58749.706      312.37917      6792.6079      182018.86    
     12700   295.82484     -58437.484     -58745.8        308.31591      6806.79        182018.86    
     12800   303.24297     -58431.801     -58747.848      316.04727      6832.6015      182018.86    
     12900   300.84966     -58429.968     -58743.521      313.5529       6816.3173      182018.86    
     13000   302.92921     -58429.152     -58744.873      315.72025      6866.5707      182018.86    
     13100   297.52594     -58436.446     -58746.535      310.08884      6784.5052      182018.86    
     13200   298.10675     -58438.775     -58749.47       310.69417      6807.7141      182018.86    
     13300   295.45096     -58438.437     -58746.363      307.92624      6834.5269      182018.86    
     13400   304.26627     -58432.009     -58749.122      317.11378      6793.8788      182018.86    
     13500   302.76609     -58429.809     -58745.36       315.55025      6865.6708      182018.86    
     13600   300.63452     -58430.975     -58744.304      313.32867      6921.3645      182018.86    
     13700   300.39565     -58434.529     -58747.608      313.07972      6861.3148      182018.86    
     13800   296.39228     -58438.892     -58747.799      308.90731      6753.5768      182018.86    
     13900   302.21225     -58438.129     -58753.102      314.97302      6722.6528      182018.86    
     14000   297.3896      -58436.763     -58746.71       309.94674      6785.5139      182018.86    
     14100   303.30984     -58430.698     -58746.815      316.11696      6904.1995      182018.86    
     14200   294.97089     -58432.213     -58739.639      307.4259       6927.8617      182018.86    
     14300   303.31332     -58433.388     -58749.509      316.12059      6798.0534      182018.86    
     14400   298.68088     -58436.553     -58747.846      311.29255      6777.5832      182018.86    
     14500   301.09624     -58436.617     -58750.427      313.80989      6772.3098      182018.86    
     14600   296.8935      -58438.018     -58747.448      309.42969      6812.9035      182018.86    
     14700   303.65395     -58435.192     -58751.668      316.4756       6736.8782      182018.86    
     14800   293.49181     -58434.599     -58740.484      305.88437      6901.2187      182018.86    
     14900   302.52388     -58430.239     -58745.536      315.29782      6855.5682      182018.86    
     15000   307.19666     -58431.444     -58751.612      320.1679       6738.5212      182018.86    
     15100   297.57425     -58436.288     -58746.427      310.13919      6802.3153      182018.86    
     15200   298.69866     -58437.51      -58748.821      311.31108      6775.2061      182018.86    
     15300   300.32231     -58436.355     -58749.358      313.00329      6780.5432      182018.86    
     15400   298.17685     -58435.489     -58746.256      310.76723      6768.0466      182018.86    
     15500   303.60766     -58432.027     -58748.454      316.42735      6818.6507      182018.86    
     15600   300.63756     -58428.782     -58742.114      313.33185      6872.2726      182018.86    
     15700   304.74698     -58423.766     -58741.381      317.61478      6947.4008      182018.86    
     15800   303.20595     -58427.163     -58743.172      316.00869      6910.5017      182018.86    
     15900   300.20808     -58434.294     -58747.178      312.88424      6825.5001      182018.86    
     16000   302.12231     -58437.09      -58751.97       314.87928      6718.7325      182018.86    
     16100   298.43026     -58437.862     -58748.893      311.03134      6865.9211      182018.86    
     16200   297.68743     -58435.406     -58745.663      310.25715      6842.5953      182018.86    
     16300   300.81393     -58432.194     -58745.71       313.51566      6849.3685      182018.86    
     16400   307.64375     -58425.407     -58746.041      320.63387      6844.8915      182018.86    
     16500   301.87562     -58426.913     -58741.535      314.62218      6909.8183      182018.86    
     16600   298.51722     -58432.466     -58743.588      311.12197      6905.5296      182018.86    
     16700   297.44272     -58436.183     -58746.186      310.0021       6815.7693      182018.86    
     16800   300.76954     -58435.962     -58749.431      313.4694       6764.0794      182018.86    
     16900   299.47444     -58435.625     -58747.745      312.11961      6798.5667      182018.86    
     17000   300.10246     -58432.655     -58745.429      312.77415      6834.0311      182018.86    
     17100   302.62511     -58427.526     -58742.929      315.40332      6889.772       182018.86    
     17200   302.44077     -58428.266     -58743.478      315.21119      6872.4111      182018.86    
     17300   301.06845     -58436.372     -58750.152      313.78093      6753.4775      182018.86    
     17400   295.93644     -58438.292     -58746.724      308.43222      6838.2919      182018.86    
     17500   300.01076     -58435.045     -58747.724      312.67858      6780.1566      182018.86    
     17600   300.65004     -58432.089     -58745.434      313.34485      6876.7882      182018.86    
     17700   300.76124     -58429.18      -58742.641      313.46075      6891.8053      182018.86    
     17800   304.22066     -58426.462     -58743.528      317.06624      6906.1272      182018.86    
     17900   301.25601     -58431.185     -58745.162      313.9764       6889.3863      182018.86    
     18000   297.37185     -58436.276     -58746.205      309.92825      6840.2988      182018.86    
     18100   301.09687     -58437.522     -58751.333      313.81055      6753.0878      182018.86    
     18200   296.46237     -58437.933     -58746.914      308.98036      6726.0128      182018.86    
     18300   304.85336     -58430.753     -58748.478      317.72566      6844.8647      182018.86    
     18400   300.6867      -58430.493     -58743.876      313.38306      6837.3738      182018.86    
     18500   302.16371     -58431.139     -58746.061      314.92244      6847.9661      182018.86    
     18600   298.7894      -58435.944     -58747.35       311.40565      6752.6021      182018.86    
     18700   300.26817     -58437.082     -58750.029      312.94686      6696.3785      182018.86    
     18800   298.43024     -58436.138     -58747.17       311.03132      6810.6129      182018.86    
     18900   299.57612     -58432.124     -58744.349      312.22559      6867.0922      182018.86    
     19000   302.11811     -58429.565     -58744.44       314.87492      6860.1377      182018.86    
     19100   302.70393     -58431.566     -58747.051      315.48546      6861.7391      182018.86    
     19200   296.83028     -58439.823     -58749.187      309.36381      6766.1834      182018.86    
     19300   296.4735      -58441.715     -58750.707      308.99196      6762.5551      182018.86    
     19400   303.57046     -58437.219     -58753.607      316.38858      6771.4433      182018.86    
     19500   295.90648     -58434.057     -58742.458      308.401        6912.4423      182018.86    
     19600   302.83386     -58431.702     -58747.323      315.62088      6896.1723      182018.86    
     19700   297.91827     -58433.407     -58743.904      310.49774      6883.288       182018.86    
     19800   300.80525     -58433.312     -58746.818      313.50662      6829.5177      182018.86    
     19900   299.60588     -58435.866     -58748.123      312.2566       6793.0252      182018.86    
     20000   296.17937     -58441.934     -58750.619      308.68541      6725.1805      182018.86    
     20100   296.94371     -58444.849     -58754.331      309.48203      6709.9575      182018.86    
     20200   294.90946     -58442.13      -58749.492      307.36187      6732.6798      182018.86    
     20300   302.08663     -58433.914     -58748.756      314.8421       6829.0407      182018.86    
     20400   302.11137     -58431.619     -58746.487      314.86788      6834.7013      182018.86    
     20500   299.55222     -58431.66      -58743.861      312.20068      6941.8754      182018.86    
     20600   298.34511     -58435.564     -58746.507      310.9426       6844.6867      182018.86    
     20700   301.2675      -58437.772     -58751.76       313.98839      6747.9252      182018.86    
     20800   298.81667     -58437.298     -58748.732      311.43406      6758.7921      182018.86    
     20900   302.01882     -58431.282     -58746.053      314.77143      6850.1759      182018.86    
     21000   302.67894     -58426.783     -58742.242      315.45942      6945.1536      182018.86    
     21100   301.68931     -58429.995     -58744.423      314.42801      6903.6287      182018.86    
     21200   303.24958     -58433.707     -58749.761      316.05416      6761.4854      182018.86    
     21300   296.88086     -58436.491     -58745.907      309.41652      6872.1156      182018.86    
     21400   298.8722      -58435.69      -58747.182      311.49194      6830.2759      182018.86    
     21500   299.75348     -58433.781     -58746.191      312.41044      6777.1575      182018.86    
     21600   304.11914     -58427.555     -58744.515      316.96043      6936.0419      182018.86    
     21700   303.61492     -58423.979     -58740.414      316.43492      6977.1305      182018.86    
     21800   307.42059     -58428.458     -58748.86       320.40128      6836.3959      182018.86    
     21900   297.90122     -58432.292     -58742.772      310.47997      6932.6943      182018.86    
     22000   300.35951     -58433.728     -58746.77       313.04205      6802.9319      182018.86    
     22100   302.76249     -58435.94      -58751.487      315.5465       6796.5134      182018.86    
     22200   295.32618     -58439.121     -58746.917      307.79619      6769.1362      182018.86    
     22300   298.60607     -58436.93      -58748.145      311.21458      6845.8601      182018.86    
     22400   303.9933      -58429.723     -58746.552      316.82928      6843.8644      182018.86    
     22500   301.65263     -58429.86      -58744.25       314.38978      6851.1989      182018.86    
     22600   301.08954     -58433.267     -58747.07       313.80291      6820.7726      182018.86    
     22700   298.13684     -58438.498     -58749.223      310.72553      6844.1224      182018.86    
     22800   297.93276     -58440.148     -58750.661      310.51284      6768.5756      182018.86    
     22900   299.68476     -58437.574     -58749.913      312.33882      6826.8678      182018.86    
     23000   297.06613     -58435.072     -58744.682      309.60961      6856.1956      182018.86    
     23100   301.41751     -58431.239     -58745.383      314.14473      6859.6729      182018.86    
     23200   302.83028     -58429.937     -58745.555      315.61715      6935.5087      182018.86    
     23300   298.49183     -58434.554     -58745.649      311.09551      6777.834       182018.86    
     23400   294.48647     -58441.45      -58748.371      306.92103      6782.2519      182018.86    
     23500   299.63183     -58439.506     -58751.79       312.28365      6725.861       182018.86    
     23600   298.38682     -58435.467     -58746.453      310.98607      6830.1226      182018.86    
     23700   298.4756      -58432.167     -58743.245      311.07859      6889.5819      182018.86    
     23800   303.23587     -58431.796     -58747.836      316.03987      6897.1039      182018.86    
     23900   298.34292     -58432.965     -58743.906      310.94031      6818.5635      182018.86    
     24000   304.03661     -58432.772     -58749.646      316.87442      6817.239       182018.86    
     24100   297.50732     -58436.005     -58746.074      310.06943      6824.0212      182018.86    
     24200   298.68108     -58436.877     -58748.169      311.29276      6784.9891      182018.86    
     24300   298.82674     -58437.014     -58748.458      311.44456      6765.0167      182018.86    
     24400   300.34996     -58433.553     -58746.585      313.0321       6793.8661      182018.86    
     24500   305.12692     -58429.777     -58747.787      318.01077      6841.4735      182018.86    
     24600   300.85904     -58430.753     -58744.315      313.56268      6887.206       182018.86    
     24700   298.36461     -58433.989     -58744.952      310.96292      6817.9705      182018.86    
     24800   297.04127     -58439.99      -58749.574      309.5837       6789.6793      182018.86    
     24900   303.69089     -58439.836     -58756.35       316.5141       6679.6055      182018.86    
     25000   296.16195     -58439.068     -58747.735      308.66725      6710.9468      182018.86    
     25100   300.32861     -58434.333     -58747.343      313.00985      6814.5915      182018.86    
     25200   296.37223     -58433.921     -58742.807      308.88642      6881.9946      182018.86    
     25300   302.56263     -58433.393     -58748.731      315.3382       6839.6846      182018.86    
     25400   301.29106     -58435.651     -58749.664      314.01294      6749.0281      182018.86    
     25500   297.76564     -58440.16      -58750.499      310.33866      6808.1827      182018.86    
     25600   289.42361     -58445.466     -58747.111      301.64439      6776.5702      182018.86    
     25700   297.51555     -58440.24      -58750.318      310.07801      6789.8151      182018.86    
     25800   301.2681      -58436.282     -58750.271      313.98901      6796.5395      182018.86    
     25900   303.60417     -58433.108     -58749.532      316.42372      6784.1261      182018.86    
     26000   300.73083     -58432.137     -58745.566      313.42905      6914.6332      182018.86    
     26100   298.08072     -58433.227     -58743.894      310.66704      6881.9377      182018.86    
     26200   294.81017     -58438.753     -58746.011      307.2584       6823.9009      182018.86    
     26300   300.86981     -58439.324     -58752.898      313.5739       6704.5607      182018.86    
     26400   300.82133     -58435.806     -58749.329      313.52337      6823.4171      182018.86    
     26500   298.72358     -58432.054     -58743.391      311.33705      6867.6057      182018.86    
     26600   303.35997     -58428.409     -58744.578      316.16921      6948.0706      182018.86    
     26700   300.60874     -58430.25      -58743.552      313.30181      6921.0061      182018.86    
     26800   299.17494     -58438.284     -58750.092      311.80746      6803.7935      182018.86    
     26900   299.81631     -58440.276     -58752.752      312.47592      6746.2111      182018.86    
     27000   298.48131     -58436.68      -58747.764      311.08455      6766.5315      182018.86    
     27100   300.9433      -58432.198     -58745.849      313.6505       6886.9977      182018.86    
     27200   300.37177     -58430.948     -58744.003      313.05483      6928.8357      182018.86    
     27300   302.84622     -58431.814     -58747.447      315.63377      6856.8657      182018.86    
     27400   299.12502     -58439.32      -58751.075      311.75543      6767.2591      182018.86    
     27500   296.36315     -58440.344     -58749.221      308.87695      6750.5135      182018.86    
     27600   298.24091     -58437.104     -58747.938      310.83399      6853.8968      182018.86    
     27700   300.42988     -58434.05      -58747.166      313.1154       6823.4725      182018.86    
     27800   300.26267     -58433.117     -58746.058      312.94113      6903.8027      182018.86    
     27900   306.06703     -58432.85      -58751.84       318.99057      6795.2893      182018.86    
     28000   294.6884      -58435.3       -58742.432      307.13148      6866.4523      182018.86    
     28100   297.74227     -58434.494     -58744.808      310.3143       6923.611       182018.86    
     28200   302.08365     -58434.048     -58748.887      314.83899      6819.7859      182018.86    
     28300   302.91813     -58433.387     -58749.096      315.70871      6896.0232      182018.86    
     28400   296.50374     -58434.42      -58743.443      309.02348      6928.5769      182018.86    
     28500   299.28322     -58437.649     -58749.569      311.92032      6843.6109      182018.86    
     28600   294.32541     -58440.795     -58747.548      306.75317      6772.2459      182018.86    
     28700   299.513       -58438.597     -58750.757      312.1598       6730.0181      182018.86    
     28800   305.06411     -58431.144     -58749.09       317.9453       6814.226       182018.86    
     28900   297.4258      -58431.484     -58741.468      309.98447      6971.4982      182018.86    
     29000   301.69272     -58432.8       -58747.232      314.43156      6826.4472      182018.86    
     29100   300.87153     -58437.532     -58751.107      313.5757       6742.5262      182018.86    
     29200   297.18586     -58440.082     -58749.817      309.7344       6746.4936      182018.86    
     29300   299.46946     -58434.989     -58747.104      312.11442      6828.2711      182018.86    
     29400   302.75637     -58427.98      -58743.52       315.54012      6926.4085      182018.86    
     29500   300.25284     -58430.348     -58743.279      312.93088      6867.6173      182018.86    
     29600   297.90715     -58436.099     -58746.586      310.48614      6792.5609      182018.86    
     29700   301.60792     -58436.41      -58750.753      314.34318      6698.807       182018.86    
     29800   301.51232     -58435.858     -58750.102      314.24354      6769.7277      182018.86    
     29900   298.645       -58436.373     -58747.628      311.25515      6803.3239      182018.86    
     30000   299.32117     -58433.467     -58745.427      311.95987      6821.1649      182018.86    
     30100   302.77551     -58429.436     -58744.996      315.56007      6799.7291      182018.86    
     30200   306.4059      -58427.182     -58746.525      319.34375      6858.4751      182018.86    
     30300   297.93569     -58433.062     -58743.578      310.5159       6869.9315      182018.86    
     30400   299.49744     -58436.785     -58748.929      312.14359      6812.5704      182018.86    
     30500   298.49781     -58437.298     -58748.4        311.10175      6796.2534      182018.86    
     30600   299.63301     -58435.493     -58747.778      312.28488      6779.8549      182018.86    
     30700   304.50754     -58431.854     -58749.219      317.36523      6796.0139      182018.86    
     30800   295.40127     -58433.271     -58741.145      307.87446      6929.0192      182018.86    
     30900   298.94607     -58440.629     -58752.198      311.56893      6631.5023      182018.86    
     31000   295.68382     -58443.55      -58751.719      308.16894      6712.3395      182018.86    
     31100   297.67019     -58438.456     -58748.695      310.23918      6817.7318      182018.86    
     31200   300.11834     -58433.246     -58746.037      312.79071      6859.5524      182018.86    
     31300   301.29206     -58432.276     -58746.29       314.01398      6917.0377      182018.86    
     31400   302.78802     -58432.776     -58748.349      315.5731       6763.9764      182018.86    
     31500   300.84195     -58435.667     -58749.212      313.54486      6836.7008      182018.86    
     31600   298.21752     -58441.982     -58752.792      310.80962      6765.6099      182018.86    
     31700   295.26951     -58442.469     -58750.206      307.73713      6734.6083      182018.86    
     31800   299.01345     -58435.98      -58747.619      311.63916      6810.7959      182018.86    
     31900   300.23563     -58433.718     -58746.631      312.91294      6825.3115      182018.86    
     32000   301.21306     -58433.389     -58747.321      313.93164      6796.8103      182018.86    
     32100   297.41558     -58434.46      -58744.434      309.97381      6851.3194      182018.86    
     32200   300.10258     -58434.792     -58747.567      312.77428      6803.7977      182018.86    
     32300   301.06429     -58436.938     -58750.714      313.77659      6756.9098      182018.86    
     32400   299.30506     -58439.069     -58751.012      311.94309      6745.9631      182018.86    
     32500   294.09273     -58439.894     -58746.405      306.51066      6804.0757      182018.86    
     32600   302.19274     -58433.222     -58748.175      314.95269      6741.4282      182018.86    
     32700   299.82784     -58431.34      -58743.828      312.48793      6886.2078      182018.86    
     32800   306.52349     -58429.609     -58749.075      319.4663       6817.6789      182018.86    
     32900   296.02182     -58436.59      -58745.111      308.52121      6859.5445      182018.86    
     33000   297.06984     -58439.444     -58749.057      309.61348      6754.8181      182018.86    
     33100   296.80702     -58438.063     -58747.403      309.33956      6830.3951      182018.86    
     33200   302.587       -58433.502     -58748.865      315.3636       6794.0647      182018.86    
     33300   300.1026      -58431.846     -58744.62       312.7743       6865.1556      182018.86    
     33400   301.55261     -58431.719     -58746.005      314.28554      6854.3998      182018.86    
     33500   294.45196     -58438.947     -58745.832      306.88506      6823.3169      182018.86    
     33600   293.89771     -58443.871     -58750.179      306.3074       6693.151       182018.86    
     33700   298.9884      -58439.188     -58750.801      311.61305      6742.0951      182018.86    
     33800   304.057       -58435.072     -58751.967      316.89567      6698.1134      182018.86    
     33900   294.52251     -58434.788     -58741.747      306.95859      6828.5725      182018.86    
     34000   301.652       -58430.716     -58745.105      314.38912      6890.8235      182018.86    
     34100   298.9989      -58431.82      -58743.444      311.62399      6865.8281      182018.86    
     34200   300.06009     -58439.245     -58751.975      312.73         6669.0605      182018.86    
     34300   296.28344     -58442.628     -58751.422      308.79387      6688.1662      182018.86    
     34400   298.39036     -58438.619     -58749.609      310.98976      6722.5363      182018.86    
     34500   296.90499     -58434.62      -58744.062      309.44167      6848.9835      182018.86    
     34600   301.04753     -58432.684     -58746.444      313.75913      6775.7496      182018.86    
     34700   302.47584     -58433.036     -58748.284      315.24775      6818.6362      182018.86    
     34800   297.80597     -58434.996     -58745.376      310.38069      6785.3868      182018.86    
     34900   295.51673     -58438.512     -58746.506      307.99479      6784.2774      182018.86    
     35000   298.57876     -58441.225     -58752.411      311.18611      6662.8086      182018.86    
     35100   301.08191     -58437.082     -58750.877      313.79496      6730.5414      182018.86    
     35200   299.89692     -58431.826     -58744.386      312.55993      6870.0131      182018.86    
     35300   300.99162     -58430.829     -58744.53       313.70085      6833.5312      182018.86    
     35400   301.12319     -58432.932     -58746.77       313.83798      6849.9496      182018.86    
     35500   297.86194     -58436.213     -58746.652      310.43902      6768.8915      182018.86    
     35600   296.92101     -58438.302     -58747.761      309.45837      6846.2539      182018.86    
     35700   297.94415     -58443.175     -58753.7        310.52471      6619.2912      182018.86    
     35800   299.39303     -58443.148     -58755.183      312.03477      6667.9761      182018.86    
     35900   298.12646     -58437.231     -58747.945      310.71471      6763.1742      182018.86    
     36000   296.01162     -58432.46      -58740.97       308.51058      6887.5485      182018.86    
     36100   304.42488     -58430.148     -58747.427      317.27908      6791.5752      182018.86    
     36200   299.8797      -58433.377     -58745.919      312.54199      6817.5532      182018.86    
     36300   302.49706     -58434.541     -58749.811      315.26986      6741.4316      182018.86    
     36400   294.39861     -58441.8       -58748.63       306.82946      6765.13        182018.86    
     36500   295.09429     -58443.173     -58750.728      307.55451      6704.9731      182018.86    
     36600   300.73        -58437.705     -58751.133      313.42819      6788.7073      182018.86    
     36700   298.79646     -58435.057     -58746.47       311.41301      6783.7981      182018.86    
     36800   302.40245     -58432.142     -58747.313      315.17126      6852.8188      182018.86    
     36900   295.72415     -58433.519     -58741.73       308.21097      6862.3248      182018.86    
     37000   300.43682     -58434.65      -58747.773      313.12263      6793.4252      182018.86    
     37100   302.13363     -58437.746     -58752.637      314.89108      6740.0219      182018.86    
     37200   294.17596     -58440.65      -58747.247      306.59741      6790.3245      182018.86    
     37300   302.4088      -58435.913     -58751.091      315.17787      6761.0441      182018.86    
     37400   300.94846     -58432.547     -58746.203      313.65587      6827.8404      182018.86    
     37500   301.24557     -58429.13      -58743.096      313.96553      6920.783       182018.86    
     37600   304.22747     -58427.38      -58744.453      317.07334      6835.9235      182018.86    
     37700   301.02657     -58433.032     -58746.769      313.73728      6775.5228      182018.86    
     37800   296.47228     -58438.115     -58747.106      308.99069      6734.1172      182018.86    
     37900   300.16503     -58438.591     -58751.43       312.83936      6773.3689      182018.86    
     38000   298.92181     -58436.834     -58748.378      311.54365      6762.7922      182018.86    
     38100   301.9248      -58431.059     -58745.732      314.67344      6867.5774      182018.86    
     38200   302.45247     -58429.234     -58744.457      315.22339      6886.1308      182018.86    
     38300   300.86565     -58432.133     -58745.702      313.56957      6856.4203      182018.86    
     38400   294.41023     -58440.473     -58747.314      306.84157      6756.6497      182018.86    
     38500   301.57156     -58438.074     -58752.379      314.30529      6783.5042      182018.86    
     38600   298.59171     -58435.38      -58746.579      311.19961      6807.871       182018.86    
     38700   303.71143     -58430.277     -58746.813      316.53551      6877.599       182018.86    
     38800   302.38384     -58430.021     -58745.173      315.15187      6839.518       182018.86    
     38900   296.68909     -58436.411     -58745.627      309.21665      6891.1658      182018.86    
     39000   299.56633     -58441.075     -58753.29       312.21539      6707.0949      182018.86    
     39100   297.5588      -58440.24      -58750.363      310.12308      6737.8256      182018.86    
     39200   300.48129     -58434.909     -58748.078      313.16898      6765.2558      182018.86    
     39300   300.55667     -58431.623     -58744.87       313.24754      6804.4195      182018.86    
     39400   301.55801     -58432.615     -58746.906      314.29117      6795.1023      182018.86    
     39500   300.37829     -58435.058     -58748.12       313.06163      6827.8813      182018.86    
     39600   297.74602     -58436.674     -58746.992      310.31821      6782.9952      182018.86    
     39700   297.8601      -58442.294     -58752.731      310.43711      6689.856       182018.86    
     39800   297.09111     -58442.705     -58752.341      309.63565      6676.8452      182018.86    
     39900   298.0501      -58436.152     -58746.787      310.63513      6798.9696      182018.86    
     40000   299.86938     -58433.7       -58746.231      312.53123      6790.6988      182018.86    
     40100   301.4997      -58432.236     -58746.467      314.23039      6865.89        182018.86    
     40200   302.08852     -58431.178     -58746.022      314.84407      6910.4428      182018.86    
     40300   298.61159     -58435.904     -58747.124      311.22033      6815.3292      182018.86    
     40400   299.24213     -58440.955     -58752.833      311.87749      6659.9898      182018.86    
     40500   295.83006     -58441.145     -58749.466      308.32135      6739.0409      182018.86    
     40600   297.22945     -58435.124     -58744.903      309.77983      6794.3632      182018.86    
     40700   301.52779     -58432.616     -58746.876      314.25966      6815.2119      182018.86    
     40800   302.25919     -58432.473     -58747.495      315.02194      6801.1501      182018.86    
     40900   301.33616     -58433.158     -58747.218      314.05995      6841.2832      182018.86    
     41000   296.88317     -58437.659     -58747.078      309.41892      6760.8847      182018.86    
     41100   295.12262     -58441.39      -58748.974      307.58404      6729.049       182018.86    
     41200   302.62954     -58437.762     -58753.17       315.40794      6701.9672      182018.86    
     41300   304.17256     -58430.483     -58747.5        317.01611      6781.7243      182018.86    
     41400   300.90739     -58429.369     -58742.982      313.61307      6865.8737      182018.86    
     41500   299.06974     -58431.541     -58743.239      311.69783      6853.278       182018.86    
     41600   299.78753     -58435.554     -58748          312.44593      6781.0271      182018.86    
     41700   300.13504     -58438.769     -58751.578      312.8081       6742.8656      182018.86    
     41800   298.02836     -58439.034     -58749.646      310.61248      6735.2617      182018.86    
     41900   299.68814     -58430.719     -58743.061      312.34234      6899.2852      182018.86    
     42000   303.77347     -58428.452     -58745.052      316.60017      6847.2392      182018.86    
     42100   300.59375     -58432.88      -58746.167      313.28618      6805.1665      182018.86    
     42200   298.45515     -58436.853     -58747.91       311.05728      6752.2205      182018.86    
     42300   294.21806     -58438.74      -58745.381      306.64129      6827.3622      182018.86    
     42400   306.83538     -58432.375     -58752.166      319.79137      6778.51        182018.86    
     42500   302.9494      -58429.353     -58745.095      315.74131      6851.1584      182018.86    
     42600   301.13942     -58430.163     -58744.018      313.8549       6845.8565      182018.86    
     42700   300.13922     -58433.072     -58745.884      312.81247      6848.4494      182018.86    
     42800   298.78098     -58436.564     -58747.961      311.39687      6771.27        182018.86    
     42900   300.65257     -58437.063     -58750.411      313.34749      6754.1687      182018.86    
     43000   301.73139     -58433.705     -58748.177      314.47186      6778.3264      182018.86    
     43100   298.47449     -58427.621     -58738.698      311.07744      6981.3725      182018.86    
     43200   305.13571     -58425.819     -58743.838      318.01993      6857.7686      182018.86    
     43300   303.68905     -58431.976     -58748.488      316.51218      6757.1587      182018.86    
     43400   297.12326     -58435.923     -58745.592      309.66916      6839.0036      182018.86    
     43500   296.10461     -58436.028     -58744.635      308.6075       6857.9498      182018.86    
     43600   301.00504     -58434.551     -58748.266      313.71485      6783.9485      182018.86    
     43700   302.63538     -58433.163     -58748.577      315.41403      6783.3507      182018.86    
     43800   298.56407     -58433.417     -58744.588      311.1708       6857.1454      182018.86    
     43900   298.73282     -58433.717     -58745.064      311.34668      6798.9736      182018.86    
     44000   303.42209     -58433.706     -58749.94       316.23395      6748.9932      182018.86    
     44100   297.92233     -58437.53      -58748.031      310.50197      6781.1461      182018.86    
     44200   298.38947     -58439.778     -58750.767      310.98883      6762.4475      182018.86    
     44300   298.53989     -58436.532     -58747.678      311.1456       6780.1113      182018.86    
     44400   304.95798     -58429.976     -58747.81       317.8347       6838.4331      182018.86    
     44500   301.27081     -58430.412     -58744.403      313.99184      6882.623       182018.86    
     44600   298.58762     -58432.633     -58743.829      311.19535      6854.0554      182018.86    
     44700   299.37737     -58438.82      -58750.839      312.01845      6742.878       182018.86    
     44800   296.67247     -58442.761     -58751.961      309.19933      6627.3622      182018.86    
     44900   296.89623     -58439.155     -58748.588      309.43254      6774.6372      182018.86    
     45000   298.15114     -58435.183     -58745.924      310.74044      6800.4308      182018.86    
     45100   299.67511     -58433.392     -58745.721      312.32876      6833.1198      182018.86    
     45200   302.14333     -58433.079     -58747.98       314.9012       6757.5032      182018.86    
     45300   301.04279     -58435.629     -58749.383      313.75418      6736.5846      182018.86    
     45400   294.28914     -58440.915     -58747.63       306.71537      6751.1189      182018.86    
     45500   298.05564     -58439.683     -58750.324      310.64091      6711.8094      182018.86    
     45600   300.23299     -58433.807     -58746.717      312.91019      6822.3462      182018.86    
     45700   302.40936     -58430.246     -58745.424      315.17846      6826.8382      182018.86    
     45800   301.48964     -58431.915     -58746.134      314.2199       6806.5904      182018.86    
     45900   298.45848     -58435.016     -58746.077      311.06076      6848.3248      182018.86    
     46000   301.50488     -58435.953     -58750.189      314.23578      6704.6154      182018.86    
     46100   299.28702     -58436.521     -58748.445      311.92428      6753.1496      182018.86    
     46200   303.41619     -58428.969     -58745.197      316.2278       6859.113       182018.86    
     46300   301.15423     -58427.036     -58740.907      313.87033      6962.8548      182018.86    
     46400   303.31675     -58431.229     -58747.353      316.12416      6801.3306      182018.86    
     46500   298.56288     -58436.588     -58747.758      311.16956      6807.1227      182018.86    
     46600   298.2184      -58436.496     -58747.306      310.81054      6768.9491      182018.86    
     46700   303.79952     -58432.836     -58749.463      316.62732      6815.4178      182018.86    
     46800   297.84724     -58431.475     -58741.899      310.4237       6869.9132      182018.86    
     46900   307.33085     -58427.3       -58747.608      320.30776      6876.4666      182018.86    
     47000   300.20595     -58430.315     -58743.197      312.88201      6817.0687      182018.86    
     47100   298.38151     -58436.212     -58747.193      310.98054      6778.3279      182018.86    
     47200   300.82553     -58438.015     -58751.543      313.52775      6733.6318      182018.86    
     47300   294.80828     -58437.825     -58745.081      307.25643      6808.1989      182018.86    
     47400   302.32908     -58431.78      -58746.875      315.09479      6884.9034      182018.86    
     47500   302.35708     -58429.203     -58744.327      315.12397      6887.5487      182018.86    
     47600   299.518       -58430.449     -58742.614      312.16502      6830.6208      182018.86    
     47700   304.5564      -58432.787     -58750.204      317.41616      6786.3407      182018.86    
     47800   297.3936      -58437.903     -58747.854      309.95091      6744.2878      182018.86    
     47900   299.58431     -58438.873     -58751.108      312.23412      6755.4805      182018.86    
     48000   298.64007     -58436.727     -58747.977      311.25001      6764.6988      182018.86    
     48100   301.30943     -58429.593     -58743.625      314.03209      6907.5856      182018.86    
     48200   299.91703     -58430.619     -58743.199      312.58089      6894.915       182018.86    
     48300   301.33552     -58432.217     -58746.276      314.05927      6834.3305      182018.86    
     48400   300.37362     -58437.676     -58750.733      313.05676      6765.0995      182018.86    
     48500   296.12751     -58440.591     -58749.223      308.63136      6736.3109      182018.86    
     48600   299.39844     -58437.478     -58749.518      312.04041      6807.3137      182018.86    
     48700   298.12611     -58434.481     -58745.195      310.71435      6838.7883      182018.86    
     48800   301.67393     -58430.313     -58744.725      314.41198      6862.2271      182018.86    
     48900   303.8965      -58428.308     -58745.036      316.7284       6891.1682      182018.86    
     49000   299.72959     -58431.941     -58744.326      312.38554      6905.5137      182018.86    
     49100   294.67077     -58438.762     -58745.875      307.11311      6795.2003      182018.86    
     49200   301.40304     -58438.282     -58752.411      314.12965      6788.9262      182018.86    
     49300   300.9178      -58435.497     -58749.121      313.62392      6781.2435      182018.86    
     49400   300.00691     -58431.178     -58743.852      312.67457      6892.2235      182018.86    
     49500   302.47317     -58428.231     -58743.476      315.24497      6983.4087      182018.86    
     49600   300.54338     -58431.129     -58744.363      313.23369      6862.9347      182018.86    
     49700   299.79927     -58438.034     -58750.492      312.45816      6733.9408      182018.86    
     49800   298.65545     -58439.27      -58750.536      311.26604      6749.6399      182018.86    
     49900   298.6793      -58435.693     -58746.984      311.29089      6788.8179      182018.86    
     50000   299.44769     -58430.489     -58742.581      312.09173      6935.6087      182018.86    
     50100   303.3253      -58430.522     -58746.655      316.13307      6858.0674      182018.86    
     50200   300.63676     -58432.786     -58746.117      313.33101      6806.1396      182018.86    
     50300   297.92523     -58433.824     -58744.329      310.50499      6894.7952      182018.86    
     50400   301.24807     -58433.135     -58747.103      313.96813      6810.2745      182018.86    
     50500   298.72297     -58435.726     -58747.062      311.33641      6829.4651      182018.86    
     50600   300.36621     -58439.741     -58752.79       313.04904      6708.3251      182018.86    
     50700   296.76944     -58441.394     -58750.694      309.3004       6677.7727      182018.86    
     50800   299.03557     -58435.79      -58747.453      311.66221      6790.6416      182018.86    
     50900   301.24579     -58430.928     -58744.894      313.96576      6880.2228      182018.86    
     51000   302.28537     -58430.834     -58745.884      315.04923      6861.8309      182018.86    
     51100   299.93443     -58434.986     -58747.585      312.59903      6872.9259      182018.86    
     51200   294.58852     -58438.615     -58745.643      307.02739      6806.2004      182018.86    
     51300   298.59796     -58437.551     -58748.757      311.20612      6826.5781      182018.86    
     51400   298.87943     -58436.461     -58747.96       311.49948      6766.5331      182018.86    
     51500   303.02786     -58433.698     -58749.521      315.82307      6854.8646      182018.86    
     51600   297.84543     -58434.007     -58744.429      310.42182      6861.7605      182018.86    
     51700   301.45245     -58433.152     -58747.333      314.18115      6760.6803      182018.86    
     51800   300.81751     -58430.806     -58744.325      313.51939      6868.6074      182018.86    
     51900   304.25321     -58429.852     -58746.952      317.10016      6805.0898      182018.86    
     52000   298.95609     -58434.46      -58746.04       311.57937      6819.4631      182018.86    
     52100   297.89624     -58438.567     -58749.042      310.47478      6765.6701      182018.86    
     52200   299.01818     -58439.458     -58751.102      311.64409      6754.5596      182018.86    
     52300   303.45706     -58431.544     -58747.815      316.2704       6800.9848      182018.86    
     52400   301.39269     -58428.076     -58742.195      314.11886      6940.3964      182018.86    
     52500   298.52245     -58430.962     -58742.089      311.12743      6889.7161      182018.86    
     52600   300.29392     -58434.869     -58747.843      312.9737       6798.5428      182018.86    
     52700   301.06084     -58436.711     -58750.484      313.773        6722.9184      182018.86    
     52800   299.91737     -58436.958     -58749.539      312.58124      6761.1369      182018.86    
     52900   296.13347     -58435.955     -58744.592      308.63757      6865.8107      182018.86    
     53000   303.47541     -58434.541     -58750.83       316.28952      6739.5375      182018.86    
     53100   297.74411     -58435.013     -58745.329      310.31622      6830.7296      182018.86    
     53200   299.5434      -58433.401     -58745.593      312.19149      6822.7241      182018.86    
     53300   300.76957     -58433.783     -58747.252      313.46943      6812.2825      182018.86    
     53400   300.33435     -58436.155     -58749.17       313.01583      6839.6323      182018.86    
     53500   294.88309     -58440.93      -58748.264      307.33439      6736.1001      182018.86    
     53600   298.38155     -58439.062     -58750.043      310.98057      6745.2397      182018.86    
     53700   300.68891     -58433.159     -58746.544      313.38537      6814.8531      182018.86    
     53800   301.62141     -58431.582     -58745.94       314.35723      6891.0047      182018.86    
     53900   299.88243     -58432.981     -58745.526      312.54483      6834.7858      182018.86    
     54000   298.43426     -58435.266     -58746.302      311.03551      6811.6601      182018.86    
     54100   298.18798     -58438.942     -58749.721      310.77883      6721.3855      182018.86    
     54200   297.92133     -58444.457     -58754.958      310.50093      6627.5631      182018.86    
     54300   294.89836     -58442.876     -58750.226      307.35031      6735.073       182018.86    
     54400   298.13207     -58436.545     -58747.265      310.72057      6789.2899      182018.86    
     54500   300.80236     -58432.85      -58746.353      313.5036       6806.1462      182018.86    
     54600   303.67184     -58430.527     -58747.021      316.49425      6846.0959      182018.86    
     54700   298.88887     -58433.388     -58744.898      311.50932      6827.9433      182018.86    
     54800   295.51314     -58440.197     -58748.188      307.99105      6775.7846      182018.86    
     54900   298.0135      -58441.234     -58751.831      310.59699      6668.4808      182018.86    
     55000   298.89246     -58438.616     -58750.129      311.51305      6685.3863      182018.86    
     55100   299.18429     -58435.702     -58747.519      311.81721      6757.7826      182018.86    
     55200   302.11975     -58431.519     -58746.396      314.87662      6820.9442      182018.86    
     55300   298.25005     -58432.282     -58743.126      310.84352      6878.261       182018.86    
     55400   301.53167     -58433.181     -58747.444      314.26371      6769.7096      182018.86    
     55500   302.11485     -58434.786     -58749.658      314.87152      6833.7073      182018.86    
     55600   299.28642     -58438.337     -58750.26       311.92366      6713.6183      182018.86    
     55700   293.54009     -58446.267     -58752.202      305.93468      6723.6634      182018.86    
     55800   293.59283     -58444.619     -58750.609      305.98965      6731.2394      182018.86    
     55900   296.8249      -58438.067     -58747.425      309.3582       6768.0194      182018.86    
     56000   304.46784     -58434.114     -58751.438      317.32386      6818.9757      182018.86    
     56100   296.28978     -58434.752     -58743.553      308.80049      6847.7342      182018.86    
     56200   302.95446     -58431.86      -58747.606      315.74658      6820.457       182018.86    
     56300   298.15825     -58431.692     -58742.44       310.74785      6902.5455      182018.86    
     56400   300.02048     -58433.662     -58746.351      312.68871      6787.4769      182018.86    
     56500   302.0665      -58438.596     -58753.417      314.82112      6693.9801      182018.86    
     56600   298.22129     -58441.209     -58752.022      310.81354      6715.191       182018.86    
     56700   297.20894     -58437.196     -58746.954      309.75846      6790.0647      182018.86    
     56800   299.30472     -58432.877     -58744.819      311.94273      6829.5376      182018.86    
     56900   302.43484     -58432.105     -58747.31       315.20501      6822.252       182018.86    
     57000   301.32055     -58433.913     -58747.957      314.04367      6792.2741      182018.86    
     57100   300.26409     -58436.912     -58749.854      312.94261      6779.6409      182018.86    
     57200   296.82955     -58442.215     -58751.578      309.36305      6657.8013      182018.86    
     57300   295.82733     -58444.331     -58752.649      308.3185       6670.594       182018.86    
     57400   299.72128     -58436.765     -58749.142      312.37688      6722.3563      182018.86    
     57500   299.83521     -58432.163     -58744.659      312.49562      6878.5636      182018.86    
     57600   302.58748     -58432.253     -58747.617      315.3641       6784.4289      182018.86    
     57700   299.75435     -58435.084     -58747.495      312.41134      6817.8797      182018.86    
     57800   298.59071     -58436.249     -58747.448      311.19857      6826.5059      182018.86    
     57900   299.33503     -58439.016     -58750.991      311.97431      6730.1468      182018.86    
     58000   293.94395     -58442.387     -58748.743      306.3556       6678.259       182018.86    
     58100   298.75078     -58437.944     -58749.309      311.36539      6820.331       182018.86    
     58200   301.46932     -58432.21      -58746.408      314.19873      6769.3264      182018.86    
     58300   302.74002     -58431.243     -58746.766      315.52308      6845.8835      182018.86    
     58400   300.23202     -58434.037     -58746.946      312.90919      6815.745       182018.86    
     58500   294.50249     -58437.564     -58744.501      306.93773      6853.8056      182018.86    
     58600   300.41662     -58435.394     -58748.495      313.10157      6799.1976      182018.86    
     58700   303.77422     -58428.001     -58744.602      316.60095      6836.4787      182018.86    
     58800   302.7278      -58427.292     -58742.802      315.51035      6848.2463      182018.86    
     58900   301.71253     -58432.528     -58746.981      314.4522       6816.5604      182018.86    
     59000   299.85629     -58437.125     -58749.643      312.51758      6764.01        182018.86    
     59100   297.54888     -58437.579     -58747.692      310.11275      6780.7562      182018.86    
     59200   300.9941      -58434.763     -58748.467      313.70344      6776.8076      182018.86    
     59300   304.24755     -58429.204     -58746.298      317.09426      6815.304       182018.86    
     59400   301.51215     -58424.977     -58739.221      314.24337      6915.3274      182018.86    
     59500   308.96797     -58426.163     -58748.177      322.014        6860.3257      182018.86    
     59600   300.24233     -58430.046     -58742.966      312.91993      6953.15        182018.86    
     59700   297.12701     -58434.622     -58744.295      309.67306      6849.3166      182018.86    
     59800   304.41419     -58436.416     -58753.684      317.26794      6723.8113      182018.86    
     59900   296.72906     -58438.984     -58748.242      309.25831      6728.6628      182018.86    
     60000   300.05694     -58434.89      -58747.616      312.72671      6808.0922      182018.86    
     60100   299.57243     -58430.618     -58742.84       312.22174      6922.2805      182018.86    
     60200   302.80866     -58430.187     -58745.782      315.59462      6878.3746      182018.86    
     60300   302.94818     -58432.35      -58748.091      315.74003      6831.7188      182018.86    
     60400   298.2273      -58435.972     -58746.792      310.81982      6785.6727      182018.86    
     60500   302.33068     -58436.052     -58751.149      315.09646      6801.0457      182018.86    
     60600   293.24776     -58438.311     -58743.941      305.63002      6794.6492      182018.86    
     60700   301.46231     -58434.509     -58748.701      314.19142      6796.2617      182018.86    
     60800   301.38616     -58431.199     -58745.311      314.11205      6845.4467      182018.86    
     60900   303.40277     -58429.057     -58745.271      316.21382      6896.9543      182018.86    
     61000   293.99764     -58433.877     -58740.289      306.41156      6874.3213      182018.86    
     61100   300.09352     -58437.682     -58750.447      312.76484      6707.9549      182018.86    
     61200   301.28682     -58439.66      -58753.668      314.00852      6728.7376      182018.86    
     61300   296.98003     -58439.921     -58749.441      309.51988      6727.4271      182018.86    
     61400   301.83336     -58431.446     -58746.024      314.57813      6834.4048      182018.86    
     61500   300.7579      -58428.884     -58742.341      313.45726      6886.0017      182018.86    
     61600   304.97974     -58430.27      -58748.127      317.85738      6832.3198      182018.86    
     61700   299.47593     -58435.593     -58747.715      312.12116      6804.9812      182018.86    
     61800   295.24038     -58437.218     -58744.925      307.70677      6815.801       182018.86    
     61900   301.47551     -58435.321     -58749.526      314.20518      6748.6293      182018.86    
     62000   302.06068     -58432.599     -58747.414      314.81506      6830.5829      182018.86    
     62100   298.96589     -58425.989     -58737.579      311.58959      7017.7043      182018.86    
     62200   307.23622     -58421.586     -58741.796      320.20913      6940.6488      182018.86    
     62300   305.10703     -58427.469     -58745.459      317.99004      6864.4377      182018.86    
     62400   301.60457     -58430.845     -58745.185      314.33969      6822.1598      182018.86    
     62500   299.94033     -58435.657     -58748.262      312.60518      6801.095       182018.86    
     62600   297.79929     -58438.703     -58749.077      310.37374      6706.1442      182018.86    
     62700   300.19298     -58436.746     -58749.614      312.86849      6763.8055      182018.86    
     62800   300.03421     -58432.017     -58744.72       312.70302      6849.3543      182018.86    
     62900   305.04192     -58425.822     -58743.744      317.92218      6902.6029      182018.86    
     63000   301.45334     -58427.749     -58741.931      314.18208      6887.4786      182018.86    
     63100   301.91796     -58431.267     -58745.933      314.66631      6832.0896      182018.86    
     63200   298.09813     -58434.663     -58745.349      310.68519      6819.6055      182018.86    
     63300   301.67438     -58434.991     -58749.404      314.41245      6791.4963      182018.86    
     63400   295.61019     -58437.862     -58745.955      308.0922       6818.3877      182018.86    
     63500   297.64032     -58442.349     -58752.557      310.20805      6690.7794      182018.86    
     63600   297.90687     -58443.577     -58754.063      310.48585      6653.3692      182018.86    
     63700   301.21776     -58436.157     -58750.094      313.93655      6724.744       182018.86    
     63800   296.28861     -58433.158     -58741.957      308.79926      6871.8998      182018.86    
     63900   299.91189     -58431.161     -58743.736      312.57553      6899.9235      182018.86    
     64000   304.23778     -58434.178     -58751.262      317.08408      6666.7261      182018.86    
     64100   300.41221     -58437.902     -58750.999      313.09698      6703.6984      182018.86    
     64200   295.94797     -58437.88      -58746.324      308.44424      6782.3906      182018.86    
     64300   301.0186      -58434.122     -58747.851      313.72898      6829.8553      182018.86    
     64400   299.88212     -58432.337     -58744.882      312.54451      6779.8238      182018.86    
     64500   301.88127     -58432.497     -58747.125      314.62807      6826.1628      182018.86    
     64600   299.69557     -58433.847     -58746.197      312.35008      6775.7507      182018.86    
     64700   297.99062     -58436.25      -58746.823      310.57314      6798.7792      182018.86    
     64800   300.87967     -58436.747     -58750.331      313.58418      6709.2034      182018.86    
     64900   301.72228     -58433.782     -58748.245      314.46237      6856.9666      182018.86    
     65000   299.23481     -58427.033     -58738.902      311.86986      6960.2616      182018.86    
     65100   305.14484     -58426.091     -58744.12       318.02944      6932.736       182018.86    
     65200   300.92535     -58431.59      -58745.222      313.63179      6800.701       182018.86    
     65300   298.75302     -58435.441     -58746.808      311.36774      6750.7752      182018.86    
     65400   300.65332     -58436.517     -58749.865      313.34827      6765.0049      182018.86    
     65500   297.02304     -58436.425     -58745.99       309.56471      6762.0045      182018.86    
     65600   304.56392     -58429.377     -58746.801      317.424        6850.0421      182018.86    
     65700   302.17253     -58426.778     -58741.71       314.93163      6902.173       182018.86    
     65800   303.60684     -58429.199     -58745.625      316.4265       6850.4405      182018.86    
     65900   298.94636     -58432.076     -58743.645      311.56923      6836.44        182018.86    
     66000   301.8825      -58433.784     -58748.413      314.62936      6808.9311      182018.86    
     66100   297.84779     -58436.936     -58747.36       310.42428      6768.2729      182018.86    
     66200   296.37037     -58437.659     -58746.543      308.88448      6777.0091      182018.86    
     66300   302.34997     -58434.3       -58749.417      315.11656      6797.5729      182018.86    
     66400   300.29401     -58430.639     -58743.613      312.97379      6874.7413      182018.86    
     66500   305.29476     -58427.415     -58745.601      318.18569      6851.2904      182018.86    
     66600   301.61694     -58430.225     -58744.577      314.35258      6890.3296      182018.86    
     66700   295.93368     -58438.235     -58746.665      308.42935      6740.3534      182018.86    
     66800   297.718       -58438.493     -58748.782      310.28901      6776.7158      182018.86    
     66900   300.84937     -58435.984     -58749.537      313.5526       6731.5916      182018.86    
     67000   303.8242      -58430.431     -58747.084      316.65304      6830.2074      182018.86    
     67100   300.08751     -58428.114     -58740.873      312.75857      6935.6564      182018.86    
     67200   303.2073      -58430.596     -58746.606      316.01009      6868.3399      182018.86    
     67300   297.57449     -58434.151     -58744.291      310.13944      6816.8208      182018.86    
     67400   301.82501     -58433.777     -58748.347      314.56944      6734.1005      182018.86    
     67500   298.73188     -58435.319     -58746.664      311.34569      6804.1713      182018.86    
     67600   297.51834     -58436.954     -58747.035      310.08092      6746.5765      182018.86    
     67700   298.2803      -58435.813     -58746.689      310.87505      6765.9135      182018.86    
     67800   303.61257     -58431.757     -58748.189      316.43248      6762.998       182018.86    
     67900   301.66089     -58430.304     -58744.702      314.39838      6865.5873      182018.86    
     68000   301.29773     -58432.812     -58746.832      314.01989      6838.2165      182018.86    
     68100   298.19915     -58439.499     -58750.29       310.79047      6672.1824      182018.86    
     68200   296.72857     -58439.376     -58748.634      309.2578       6735.1716      182018.86    
     68300   297.20961     -58436.136     -58745.896      309.75915      6811.56        182018.86    
     68400   301.45897     -58433.641     -58747.829      314.18794      6774.6618      182018.86    
     68500   302.05413     -58433.01      -58747.818      314.80823      6734.7546      182018.86    
     68600   297.97374     -58433.836     -58744.391      310.55554      6804.5626      182018.86    
     68700   299.58311     -58433.977     -58746.21       312.23287      6763.218       182018.86    
     68800   299.13872     -58435.619     -58747.388      311.76972      6788.7024      182018.86    
     68900   295.56543     -58440.798     -58748.843      308.04555      6753.7264      182018.86    
     69000   301.06945     -58440.128     -58753.91       313.78197      6671.1917      182018.86    
     69100   298.29404     -58435.34      -58746.23       310.88937      6740.8669      182018.86    
     69200   303.92378     -58430.542     -58747.299      316.75683      6848.2032      182018.86    
     69300   299.11617     -58432.02      -58743.767      311.74621      6860.5916      182018.86    
     69400   299.78663     -58434.757     -58747.202      312.44499      6781.0473      182018.86    
     69500   300.0448      -58437.271     -58749.985      312.71405      6717.5724      182018.86    
     69600   297.87428     -58438.107     -58748.559      310.45189      6786.8483      182018.86    
     69700   298.08387     -58435.479     -58746.15       310.67033      6850.3979      182018.86    
     69800   301.95944     -58430.78      -58745.49       314.70955      6843.1865      182018.86    
     69900   303.51632     -58429.703     -58746.035      316.33216      6873.87        182018.86    
     70000   302.36477     -58432.856     -58747.988      315.13199      6769.615       182018.86    
     70100   296.63314     -58438.301     -58747.46       309.15834      6796.4443      182018.86    
     70200   299.66655     -58439.502     -58751.822      312.31983      6752.5808      182018.86    
     70300   293.67875     -58440.908     -58746.987      306.0792       6819.1018      182018.86    
     70400   303.52061     -58435.132     -58751.469      316.33663      6731.8999      182018.86    
     70500   301.74739     -58430.573     -58745.062      314.48854      6847.5715      182018.86    
     70600   304.72676     -58427.86      -58745.454      317.59371      6845.2234      182018.86    
     70700   296.87626     -58433.125     -58742.537      309.41173      6868.2492      182018.86    
     70800   300.60034     -58435.107     -58748.4        313.29305      6820.101       182018.86    
     70900   299.93339     -58435.471     -58748.069      312.59794      6802.0819      182018.86    
     71000   297.13321     -58436.052     -58745.731      309.67953      6829.084       182018.86    
     71100   300.45164     -58434.159     -58747.297      313.13807      6806.7121      182018.86    
     71200   302.82483     -58428.394     -58744.005      315.61147      6859.1686      182018.86    
     71300   305.49785     -58426.539     -58744.936      318.39736      6893.0134      182018.86    
     71400   296.84572     -58432.347     -58741.727      309.37989      6876.7223      182018.86    
     71500   302.65586     -58435.295     -58750.731      315.43537      6747.2063      182018.86    
     71600   298.49571     -58437.776     -58748.875      311.09956      6705.4627      182018.86    
     71700   298.8879      -58436.17      -58747.679      311.5083       6769.3626      182018.86    
     71800   303.74938     -58433.843     -58750.418      316.57506      6782.2189      182018.86    
     71900   297.64713     -58434.566     -58744.781      310.21514      6832.391       182018.86    
     72000   300.58596     -58433.64      -58746.918      313.27806      6847.0731      182018.86    
     72100   301.57451     -58433.286     -58747.594      314.30835      6752.6933      182018.86    
     72200   302.58892     -58433.52      -58748.886      315.3656       6771.8331      182018.86    
     72300   295.18919     -58437.883     -58745.537      307.65342      6762.4483      182018.86    
     72400   299.53387     -58438.63      -58750.812      312.18156      6726.3491      182018.86    
     72500   298.11297     -58436.765     -58747.466      310.70065      6774.1766      182018.86    
     72600   303.19877     -58430.509     -58746.51       316.0012       6840.5076      182018.86    
     72700   301.31133     -58428.84      -58742.874      314.03407      6860.5792      182018.86    
     72800   302.07147     -58431.872     -58746.699      314.8263       6812.9319      182018.86    
     72900   296.41139     -58438.002     -58746.929      308.92723      6736.3499      182018.86    
     73000   299.91807     -58436.989     -58749.571      312.58197      6770.2648      182018.86    
     73100   303.23441     -58434.874     -58750.913      316.03835      6788.8701      182018.86    
     73200   298.18471     -58433.993     -58744.769      310.77543      6830.8137      182018.86    
     73300   302.42965     -58429.282     -58744.482      315.19961      6900.7935      182018.86    
     73400   303.70304     -58425.931     -58742.458      316.52677      6908.9193      182018.86    
     73500   302.37251     -58430.69      -58745.83       315.14005      6874.6448      182018.86    
     73600   299.95101     -58437.362     -58749.978      312.61631      6778.1315      182018.86    
     73700   296.83266     -58438.026     -58747.392      309.36629      6785.0838      182018.86    
     73800   302.80265     -58433.803     -58749.391      315.58836      6788.5963      182018.86    
     73900   301.95843     -58430.861     -58745.569      314.70849      6811.2599      182018.86    
     74000   301.49522     -58430.244     -58744.47       314.22572      6846.4211      182018.86    
     74100   295.92951     -58437.11      -58745.535      308.425        6793.0601      182018.86    
     74200   298.4652      -58440.135     -58751.203      311.06776      6695.5926      182018.86    
     74300   301.94401     -58438.129     -58752.822      314.69346      6694.1892      182018.86    
     74400   299.61821     -58432.674     -58744.943      312.26945      6857.5494      182018.86    
     74500   296.62965     -58430.514     -58739.669      309.1547       6882.9825      182018.86    
     74600   302.39396     -58431.789     -58746.951      315.16241      6817.4965      182018.86    
     74700   301.02802     -58436.288     -58750.027      313.73879      6675.4242      182018.86    
     74800   297.87961     -58436.332     -58746.789      310.45744      6717.8191      182018.86    
     74900   299.75026     -58434.146     -58746.553      312.40708      6795.7615      182018.86    
     75000   297.19753     -58434.748     -58744.494      309.74657      6815.2531      182018.86    
     75100   303.61402     -58434.189     -58750.623      316.43399      6780.2448      182018.86    
     75200   297.46348     -58434.557     -58744.581      310.02374      6784.8266      182018.86    
     75300   301.74807     -58432.795     -58747.284      314.48924      6788.3907      182018.86    
     75400   299.5368      -58434.903     -58747.088      312.18461      6820.7955      182018.86    
[...]
    181800   295.41823     -58436.465     -58744.357      307.89214      6793.5959      182018.86    
    181900   303.03524     -58431.539     -58747.37       315.83076      6859.6352      182018.86    
    182000   300.07359     -58431.741     -58744.485      312.74406      6824.0415      182018.86    
    182100   299.33035     -58433.502     -58745.471      311.96944      6849.6702      182018.86    
    182200   298.49965     -58438.801     -58749.905      311.10366      6757.3774      182018.86    
    182300   296.87038     -58440.895     -58750.301      309.4056       6734.7577      182018.86    
    182400   297.98458     -58436.852     -58747.419      310.56685      6792.951       182018.86    
    182500   301.66399     -58432.774     -58747.176      314.40162      6827.6109      182018.86    
    182600   301.08904     -58433.322     -58747.125      313.80239      6816.4484      182018.86    
    182700   294.90624     -58435.591     -58742.95       307.35852      6865.718       182018.86    
    182800   303.16531     -58433.306     -58749.272      315.96633      6829.3181      182018.86    
    182900   300.38771     -58432.548     -58745.619      313.07144      6832.7316      182018.86    
    183000   300.65423     -58432.567     -58745.916      313.34922      6888.7752      182018.86    
    183100   300.20918     -58434.585     -58747.471      312.88537      6825.759       182018.86    
    183200   296.87635     -58438.166     -58747.578      309.41182      6774.8852      182018.86    
    183300   301.38139     -58437.746     -58751.854      314.10708      6809.5341      182018.86    
    183400   298.65695     -58435.68      -58746.948      311.2676       6813.0835      182018.86    
    183500   302.00041     -58429.634     -58744.387      314.75224      6889.3276      182018.86    
    183600   305.99441     -58427.632     -58746.547      318.91489      6894.5148      182018.86    
    183700   299.30538     -58432.783     -58744.727      311.94342      6831.8852      182018.86    
    183800   299.27519     -58435.045     -58746.957      311.91195      6876.7677      182018.86    
    183900   298.94981     -58435.627     -58747.2        311.57283      6804.2737      182018.86    
    184000   298.98571     -58436.24      -58747.851      311.61025      6759.6814      182018.86    
    184100   305.4596      -58433.354     -58751.711      318.3575       6797.4056      182018.86    
    184200   296.91774     -58429.7       -58739.155      309.45496      6928.1941      182018.86    
    184300   305.99988     -58422.688     -58741.609      318.92059      7001.1458      182018.86    
    184400   301.60211     -58427.099     -58741.436      314.33712      6922.2871      182018.86    
    184500   304.45728     -58431.834     -58749.147      317.31285      6793.7749      182018.86    
    184600   297.12153     -58435.278     -58744.945      309.66735      6835.068       182018.86    
    184700   299.38225     -58434.176     -58746.2        312.02353      6852.5159      182018.86    
    184800   299.52912     -58433.242     -58745.418      312.1766       6793.8897      182018.86    
    184900   305.0706      -58432.862     -58750.814      317.95207      6829.1856      182018.86    
    185000   297.1873      -58436.551     -58746.287      309.7359       6816.7423      182018.86    
    185100   298.09232     -58436.481     -58747.16       310.67914      6835.9996      182018.86    
    185200   299.82075     -58434.682     -58747.162      312.48055      6834.1207      182018.86    
    185300   304.14812     -58432.008     -58748.999      316.99064      6794.8156      182018.86    
    185400   298.27867     -58429.863     -58740.736      310.87335      6905.5821      182018.86    
    185500   302.34505     -58428.119     -58743.231      315.11144      6965.2232      182018.86    
    185600   299.31602     -58434.536     -58746.49       311.95451      6813.2077      182018.86    
    185700   302.21647     -58438.115     -58753.093      314.97742      6675.1842      182018.86    
    185800   296.53682     -58438.396     -58747.454      309.05795      6762.3603      182018.86    
    185900   299.20424     -58434.182     -58746.02       311.838        6821.1145      182018.86    
    186000   299.67227     -58430.922     -58743.248      312.3258       6877.8199      182018.86    
    186100   304.79392     -58430.069     -58747.732      317.6637       6830.8446      182018.86    
    186200   300.22745     -58432.19      -58745.094      312.90442      6820.8136      182018.86    
    186300   301.63251     -58434.699     -58749.068      314.36881      6828.374       182018.86    
    186400   297.42695     -58438.477     -58748.463      309.98567      6794.5889      182018.86    
    186500   297.2936      -58438.029     -58747.875      309.84669      6784.0001      182018.86    
    186600   303.04322     -58431.323     -58747.162      315.83908      6783.0854      182018.86    
    186700   303.37516     -58427.379     -58743.564      316.18504      6902.073       182018.86    
    186800   303.3205      -58429.085     -58745.213      316.12807      6879.5158      182018.86    
    186900   299.14922     -58433.052     -58744.832      311.78066      6828.8073      182018.86    
    187000   300.83623     -58433.696     -58747.234      313.5389       6858.5104      182018.86    
    187100   300.29824     -58435.312     -58748.29       312.9782       6789.6338      182018.86    
    187200   297.77187     -58437.977     -58748.322      310.34515      6788.8029      182018.86    
    187300   300.79541     -58438.701     -58752.197      313.49636      6756.2088      182018.86    
    187400   301.41574     -58435.865     -58750.007      314.14289      6722.8771      182018.86    
    187500   298.00531     -58431.642     -58742.231      310.58845      6835.6003      182018.86    
    187600   300.71567     -58427.292     -58740.706      313.41326      6933.5899      182018.86    
    187700   304.29806     -58428.01      -58745.157      317.14691      6857.7866      182018.86    
    187800   298.82827     -58435.577     -58747.023      311.44616      6777.2817      182018.86    
    187900   306.17833     -58433.951     -58753.057      319.10657      6706.2928      182018.86    
    188000   294.31399     -58436.422     -58743.163      306.74127      6823.883       182018.86    
    188100   301.05207     -58434.797     -58748.561      313.76385      6825.1244      182018.86    
    188200   302.43189     -58432.496     -58747.698      315.20194      6815.7009      182018.86    
    188300   306.5232      -58428.983     -58748.449      319.466        6836.8994      182018.86    
    188400   300.99366     -58428.833     -58742.536      313.70298      6864.0176      182018.86    
    188500   297.22532     -58434.197     -58743.972      309.77553      6918.1397      182018.86    
    188600   296.32954     -58438.464     -58747.306      308.84192      6762.9185      182018.86    
    188700   301.79865     -58437.413     -58751.955      314.54197      6715.2284      182018.86    
    188800   305.04304     -58433.31      -58751.234      317.92335      6827.9319      182018.86    
    188900   296.3432      -58431.315     -58740.171      308.85615      6862.1073      182018.86    
    189000   303.60693     -58427.408     -58743.835      316.4266       6941.4283      182018.86    
    189100   305.10845     -58421.351     -58739.342      317.99152      7007.6232      182018.86    
    189200   302.83954     -58426.075     -58741.702      315.6268       6966.6329      182018.86    
    189300   303.38969     -58432.581     -58748.782      316.20019      6825.5149      182018.86    
    189400   296.07047     -58436.591     -58745.162      308.57192      6784.6284      182018.86    
    189500   300.65064     -58434.953     -58748.298      313.34547      6767.3016      182018.86    
    189600   299.73545     -58433.418     -58745.81       312.39164      6865.7656      182018.86    
    189700   304.11481     -58431.16      -58748.116      316.95592      6863.6861      182018.86    
    189800   301.45439     -58430.131     -58744.314      314.18316      6905.7482      182018.86    
    189900   301.39608     -58431.489     -58745.612      314.12239      6912.4152      182018.86    
    190000   298.5376      -58437.156     -58748.299      311.14321      6827.7257      182018.86    
    190100   296.36517     -58440.444     -58749.323      308.87905      6715.7796      182018.86    
    190200   301.74159     -58437.112     -58751.595      314.48249      6775.5189      182018.86    
    190300   298.9159      -58434.521     -58746.059      311.53748      6851.9229      182018.86    
    190400   297.56626     -58432.479     -58742.61       310.13086      6905.7971      182018.86    
    190500   302.66412     -58432.75      -58748.194      315.44398      6864.3421      182018.86    
    190600   300.26066     -58435.369     -58748.308      312.93903      6847.6989      182018.86    
    190700   300.05674     -58436.854     -58749.581      312.7265       6786.485       182018.86    
    190800   300.20155     -58437.72      -58750.597      312.87743      6793.3074      182018.86    
    190900   299.22015     -58433.933     -58745.787      311.85459      6878.9344      182018.86    
    191000   302.81085     -58430.052     -58745.649      315.5969       6912.2508      182018.86    
    191100   300.24253     -58431.817     -58744.737      312.92014      6873.4877      182018.86    
    191200   300.78371     -58437.09      -58750.574      313.48416      6778.5177      182018.86    
    191300   297.15412     -58441.46      -58751.161      309.70131      6691.2669      182018.86    
    191400   295.73464     -58439.691     -58747.912      308.22191      6739.8825      182018.86    
    191500   299.3461      -58436.705     -58748.691      311.98586      6801.4739      182018.86    
    191600   299.55334     -58434.833     -58747.034      312.20184      6807.3118      182018.86    
    191700   301.44558     -58432.268     -58746.442      314.17398      6776.0369      182018.86    
    191800   300.08885     -58430.476     -58743.236      312.75996      6872.4784      182018.86    
    191900   302.15246     -58427.679     -58742.59       314.91071      6933.2627      182018.86    
    192000   299.7755      -58430.707     -58743.14       312.43339      6879.7097      182018.86    
    192100   304.94084     -58436.095     -58753.911      317.81683      6736.9215      182018.86    
    192200   296.47384     -58439.773     -58748.766      308.99231      6743.4455      182018.86    
    192300   299.9672      -58436.794     -58749.427      312.63318      6762.5525      182018.86    
    192400   301.20947     -58433.127     -58747.054      313.9279       6816.3168      182018.86    
    192500   294.1309      -58432.047     -58738.597      306.55044      6931.0489      182018.86    
    192600   309.20577     -58425.904     -58748.166      322.26185      6902.823       182018.86    
    192700   302.41611     -58423.968     -58739.154      315.1855       6941.4017      182018.86    
    192800   304.34737     -58429.067     -58746.265      317.1983       6870.7358      182018.86    
    192900   301.7502      -58435.563     -58750.054      314.49147      6851.2384      182018.86    
    193000   294.57833     -58439.703     -58746.719      307.01677      6895.2408      182018.86    
    193100   298.52284     -58438.288     -58749.416      311.12783      6803.9673      182018.86    
    193200   303.03815     -58432.789     -58748.622      315.8338       6786.5332      182018.86    
    193300   301.96788     -58428.671     -58743.39       314.71833      6969.6741      182018.86    
    193400   297.54037     -58430.851     -58740.955      310.10388      6946.2407      182018.86    
    193500   297.9695      -58432.552     -58743.104      310.55113      6879.7088      182018.86    
    193600   302.79996     -58433.947     -58749.532      315.58555      6791.5272      182018.86    
    193700   296.52185     -58438.931     -58747.974      309.04235      6762.3499      182018.86    
    193800   297.48622     -58439.873     -58749.92       310.04744      6777.9165      182018.86    
    193900   299.81395     -58434.993     -58747.467      312.47346      6837.3159      182018.86    
    194000   301.92102     -58429.207     -58743.876      314.66949      6947.4597      182018.86    
    194100   302.13379     -58429.232     -58744.124      314.89126      6894.856       182018.86    
    194200   304.20366     -58434.014     -58751.062      317.04852      6787.0027      182018.86    
    194300   298.90953     -58437.978     -58749.509      311.53085      6788.3357      182018.86    
    194400   293.45795     -58437.938     -58743.787      305.84908      6844.1151      182018.86    
    194500   302.11879     -58434.02      -58748.895      314.87562      6813.8655      182018.86    
    194600   301.53231     -58433.135     -58747.399      314.26438      6778.9182      182018.86    
    194700   299.13947     -58434.202     -58745.972      311.7705       6873.4543      182018.86    
    194800   298.86131     -58435.271     -58746.752      311.4806       6842.168       182018.86    
    194900   296.66576     -58435.541     -58744.733      309.19234      6795.2769      182018.86    
    195000   302.06254     -58434.721     -58749.538      314.817        6790.2943      182018.86    
    195100   298.68369     -58434.433     -58745.729      311.29548      6875.0529      182018.86    
    195200   302.87997     -58431.514     -58747.183      315.66894      6793.1199      182018.86    
    195300   300.25254     -58431.858     -58744.789      312.93057      6842.7865      182018.86    
    195400   301.89914     -58436.124     -58750.771      314.6467       6728.8514      182018.86    
    195500   296.35273     -58440.975     -58749.841      308.86609      6715.3206      182018.86    
    195600   294.78186     -58439.218     -58746.447      307.22889      6848.3561      182018.86    
    195700   301.24302     -58434.457     -58748.42       313.96287      6760.4133      182018.86    
    195800   300.9226      -58433.083     -58746.711      313.62892      6838.3395      182018.86    
    195900   300.31935     -58433.162     -58746.162      313.0002       6823.4624      182018.86    
    196000   298.82476     -58434.994     -58746.436      311.44251      6810.3057      182018.86    
    196100   294.82358     -58441.174     -58748.447      307.27237      6779.6198      182018.86    
    196200   299.06642     -58442.447     -58754.142      311.69436      6651.812       182018.86    
    196300   297.58982     -58437.268     -58747.423      310.15542      6738.6051      182018.86    
    196400   300.11003     -58432.651     -58745.433      312.78204      6843.1108      182018.86    
    196500   298.63761     -58434.03      -58745.278      311.24745      6873.6701      182018.86    
    196600   299.15634     -58435.586     -58747.374      311.78808      6808.3514      182018.86    
    196700   302.36807     -58434.806     -58749.942      315.13542      6773.7788      182018.86    
    196800   299.86357     -58434.705     -58747.23       312.52518      6827.4102      182018.86    
    196900   298.65777     -58433.818     -58745.087      311.26846      6854.4586      182018.86    
    197000   303.17779     -58431.606     -58747.586      315.97933      6868.0643      182018.86    
    197100   299.64264     -58432.622     -58744.917      312.29491      6825.5254      182018.86    
    197200   302.29956     -58434.946     -58750.01       315.06402      6733.8233      182018.86    
    197300   296.51293     -58440.187     -58749.22       309.03305      6782.6346      182018.86    
    197400   296.56212     -58440.743     -58749.827      309.08432      6742.7074      182018.86    
    197500   302.19746     -58433.816     -58748.774      314.95761      6797.1929      182018.86    
    197600   303.47977     -58429.238     -58745.533      316.29407      6922.8818      182018.86    
    197700   297.60575     -58431.673     -58741.845      310.17202      6912.964       182018.86    
    197800   300.47263     -58433.976     -58747.136      313.15995      6826.0484      182018.86    
    197900   301.95019     -58436.449     -58751.149      314.6999       6716.8474      182018.86    
    198000   294.55602     -58441.933     -58748.927      306.99351      6783.609       182018.86    
    198100   294.34292     -58445.768     -58752.539      306.77141      6712.6346      182018.86    
    198200   297.11771     -58440.291     -58749.955      309.66337      6756.6679      182018.86    
    198300   302.00857     -58433.395     -58748.155      314.76075      6763.2388      182018.86    
    198400   301.85791     -58432.491     -58747.094      314.60372      6797.4953      182018.86    
    198500   298.68178     -58434.062     -58745.356      311.29349      6850.8629      182018.86    
    198600   298.86092     -58436.32      -58747.8        311.48019      6806.1724      182018.86    
    198700   297.03002     -58440.135     -58749.707      309.57198      6730.1504      182018.86    
    198800   300.40596     -58439.346     -58752.436      313.09046      6685.7032      182018.86    
    198900   298.38084     -58432.125     -58743.105      310.97983      6915.2756      182018.86    
    199000   300.48926     -58429.708     -58742.885      313.17729      6981.6361      182018.86    
    199100   300.55427     -58432.811     -58746.056      313.24504      6881.5564      182018.86    
    199200   303.19381     -58435.768     -58751.764      315.99604      6768.9227      182018.86    
    199300   294.07081     -58440.156     -58746.644      306.48782      6766.5447      182018.86    
    199400   296.91819     -58438.128     -58747.583      309.45542      6790.4014      182018.86    
    199500   305.48065     -58429.505     -58747.885      318.37943      6857.2193      182018.86    
    199600   299.73534     -58430.276     -58742.667      312.39153      6872.8559      182018.86    
    199700   300.41        -58432.48      -58745.575      313.09468      6824.5746      182018.86    
    199800   299.23402     -58438.077     -58749.946      311.86904      6750.1392      182018.86    
    199900   296.16233     -58439.406     -58748.074      308.66765      6765.9843      182018.86    
    200000   301.58324     -58435.506     -58749.824      314.31746      6742.7186      182018.86    
Loop time of 26389 on 20 procs for 200000 steps with 8064 atoms

Performance: 0.655 ns/day, 36.651 hours/ns, 7.579 timesteps/s, 61.116 katom-step/s
100.0% CPU use with 20 MPI tasks x 1 OpenMP threads

MPI task timing breakdown:
Section |  min time  |  avg time  |  max time  |%varavg| %total
---------------------------------------------------------------
Pair    | 22888      | 24129      | 26024      | 700.6 | 91.44
Neigh   | 232.76     | 251.8      | 286.05     | 101.4 |  0.95
Comm    | 72.877     | 2001.4     | 3259.9     |2468.1 |  7.58
Output  | 0.48207    | 0.56027    | 0.64746    |   6.3 |  0.00
Modify  | 3.4835     | 4.4033     | 5.4224     |  27.5 |  0.02
Other   |            | 1.875      |            |       |  0.01

Nlocal:          403.2 ave         432 max         384 min
Histogram: 8 0 0 2 2 2 2 0 0 4
Nghost:        1633.85 ave        1683 max        1598 min
Histogram: 8 3 1 0 0 0 0 0 2 6
Neighs:              0 ave           0 max           0 min
Histogram: 20 0 0 0 0 0 0 0 0 0
FullNghs:      23027.2 ave       24690 max       21863 min
Histogram: 8 0 0 2 2 3 1 0 0 4

Total # of neighbors = 460544
Ave neighs/atom = 57.111111
Neighbor list builds = 200000
Dangerous builds not checked
Total wall time: 7:19:49
