(written by ASE)

97 atoms
2 atom types

0.0      12.785600000000001  xlo xhi
0.0       11.07265440262632  ylo yhi
0.0                 15.1533  zlo zhi
    -6.3928000000000003                       0                       0  xy xz yz

Masses

     1      178.48999995408445 # Hf
     2      15.998999995884349 # O

Atoms # atomic

     1   1             -0.11507544   -0.066440429999999981    -0.14969347999999999
     2   1   -0.075414499999999995      1.9578825199999998      2.6333064199999998
     3   1  -0.0073047299999999997   -0.004220709999999999      5.0789065400000002
     4   1  -0.0083450599999999996      1.8379994899999998      7.6051118899999999
     5   1  0.00041341000000000001  0.00022957999999999998      10.102834189999999
     6   1  -0.0065186899999999997      1.8599494499999998             12.64689246
     7   1             -1.63081415      2.7999819699999997             -0.01213589
     8   1     -1.6351254200000001      4.6370555999999992      2.5426053899999999
     9   1             -1.64126642      2.7835798599999997      5.1029324000000003
    10   1     -1.6063476400000001      4.6124880299999989      7.5973543699999997
    11   1             -1.60752769      2.7566337099999996             10.10771401
    12   1             -1.60820809      4.6123879099999989      12.620014729999999
    13   1     -3.1963259900000001      5.5363728399999994             -0.00740751
    14   1             -3.19455439      7.3380745199999993      2.5426076499999999
    15   1     -3.2117763300000002      5.5274509699999994      5.0791000400000001
    16   1             -3.20144304      7.3752754299999994              7.59735666
    17   1     -3.2104681500000001      5.5282052099999994      10.103522870000001
    18   1     -3.2024595900000001       7.373715419999999             12.62001675
    19   1     -4.7833535999999999      8.2603404299999976             -0.01213381
    20   1     -4.7349296399999998      10.028403459999998      2.6333084100000002
    21   1     -4.8027824299999997       8.259485119999999      5.1029319900000001
    22   1     -4.8052163800000001      10.146417819999998      7.6051093300000003
    23   1             -4.80924029      8.3021800799999976             10.10771613
    24   1     -4.7852927999999997      10.137032859999998             12.64689439
    25   1              3.24374502   0.0033195699999999996   -0.035100119999999999
    26   1               3.2340347      1.8671716199999997      2.5402983400000001
    27   1      3.2009497200000001  -0.0035379299999999995      5.0733954099999998
    28   1              3.18717096      1.8401061099999998      7.5903319299999996
    29   1      3.1871805900000001  -0.0097264399999999977             10.09859135
    30   1      3.1997010600000002      1.8473450599999999             12.61884246
    31   1      1.6247467900000001      2.8075054699999997   -0.035101970000000003
    32   1              1.59878816      4.6120717099999995      2.5253371900000001
    33   1               1.5974116      2.7738670299999995      5.0733956999999998
    34   1              1.58714673      4.6104152199999993      7.5799748100000004
    35   1              1.58517321      2.7650436399999996      10.098591499999999
    36   1              1.59088275      4.6206769099999994      12.621232880000001
    37   1             -0.00195699       5.530894019999999  -0.0024807599999999998
    38   1    0.010139860000000001       7.387620169999999      2.5268796600000001
    39   1   -0.012568609999999999      5.5286069299999987      5.0466984000000004
    40   1             -0.01077758      7.3755516899999991      7.5763926100000001
    41   1  -0.0083330699999999997      5.5337771899999995               10.098976
    42   1   -0.012735120000000001      7.3744177699999991      12.623153159999999
    43   1     -1.6038825299999999      8.3055140099999978  -0.0024834800000000001
    44   1     -1.5992295700000001      10.151209909999999               2.5253394
    45   1     -1.6111699799999999      8.2974687199999977      5.0467004600000003
    46   1             -1.60649167      10.141955639999999      7.5799793199999996
    47   1             -1.60457531      8.2985534299999983             10.09897806
    48   1     -1.5957349999999999      10.140063749999998      12.621225020000001
    49   1      6.3936973999999998   -0.011896289999999999  -0.0018787000000000001
    50   1      6.3906590300000001      1.8493302799999998      2.5322884700000001
    51   1      6.3883934299999998  -0.0075150699999999996      5.0506697999999997
    52   1      6.3821381199999996      1.8376577899999997      7.5833005399999998
    53   1      6.3811252400000003  -0.0032297099999999994      10.095153249999999
    54   1      6.3875014400000003      1.8405678399999998      12.629452430000001
    55   1      4.7869815100000004      2.7637624899999995  -0.0046261200000000001
    56   1      4.7968996800000001      4.6098115299999991              2.53228878
    57   1      4.7899134700000001      2.7654541999999998      5.0565102099999999
    58   1      4.7825339600000003      4.6082649399999989      7.5832979399999996
    59   1      4.7872227499999997      2.7638971199999998             10.09916217
    60   1      4.7877356799999999      4.6114497699999992             12.62945006
    61   1      3.1865535899999999      5.5430516099999991             -0.00188124
    62   1              3.20044314      7.3936018399999988               2.5278098
    63   1      3.1876898200000001      5.5362670799999991      5.0506625200000004
    64   1      3.1826265899999999      7.3765629299999995      7.5775448699999997
    65   1              3.18776438      5.5278360599999994             10.09515362
    66   1      3.1819189099999998      7.3687457399999987      12.617410530000001
    67   1              1.58117215      8.2946576199999988  -0.0091749399999999995
    68   1      1.6104637900000001      10.147518399999997      2.5278097599999998
    69   1      1.5833392399999999      8.2959111099999987      5.0506978599999997
    70   1              1.58679839      10.140615479999997      7.5775470599999997
    71   1      1.5886009699999999      8.2989544399999975             10.10137012
    72   1      1.5796731799999999      10.143909039999999      12.617408040000001
    73   1      9.5759859800000005   -0.020890629999999997             -0.01091074
    74   1      9.5836807900000007      1.8524477499999998      2.5397470700000002
    75   1      9.5814323399999992  -0.0033489799999999997              5.06213508
    76   1      9.5697409699999998      1.8397298999999998      7.5894159800000001
    77   1      9.5673619100000007  -0.0022883899999999995      10.087707079999999
    78   1      9.5807055000000005      1.8324881299999998             12.63116971
    79   1      7.9826833700000002      2.7590350099999994             -0.00143205
    80   1      7.9836472199999999      4.6093625599999992      2.5273475699999999
    81   1      7.9761539299999997      2.7594986099999996      5.0607344899999998
    82   1      7.9767596100000002      4.6053859399999988      7.5809797000000003
    83   1              7.98071558      2.7639485399999995             10.10644864
    84   1      7.9787949300000003      4.6065554999999989             12.63018832
    85   1      6.3807399599999997      5.5336886499999993             -0.00143424
    86   1              6.39611105      7.3734904399999994               2.5397447
    87   1      6.3778783199999998      5.5278109499999992      5.0607315899999996
    88   1      6.3781249300000002      7.3677757099999992              7.58942067
    89   1      6.3840137700000001      5.5295252499999989      10.106450990000001
    90   1      6.3773375300000001      7.3808947499999995             12.63116939
    91   1      4.7699026399999997       8.303488999999999             -0.01090813
    92   1      4.7596362299999999      10.129751269999998      2.5786707999999998
    93   1      4.7878203600000004       8.299438069999999      5.0621372999999998
    94   1      4.7925116499999998      10.148726599999998      7.5959992999999999
    95   1      4.7816944399999999      8.2867250399999985             10.08771209
    96   1      4.7406611500000002      10.118791079999998             12.57467785
    97   2              0.88069449     0.50846926999999986      1.5429078599999999
