(written by ASE)

97 atoms
2 atom types

0.0      12.785600000000001  xlo xhi
0.0       11.07265440262632  ylo yhi
0.0                 15.1533  zlo zhi
    -6.3928000000000003                       0                       0  xy xz yz

Masses

     1      178.48999995408445 # Hf
     2      15.998999995884349 # O

Atoms # atomic

     1   1   -0.075852610000000001   -0.043795119999999993   -0.095232250000000004
     2   1             -0.02415252      2.0478354599999995      2.5244633099999998
     3   1  0.00096403999999999999  0.00055325999999999986      5.1659517599999996
     4   1  -0.0086815199999999999      1.8352123299999998      7.5915461200000003
     5   1               0.0011417  0.00065004999999999989      10.124509359999999
     6   1  -0.0031757899999999999      1.8549877299999997      12.622083699999999
     7   1             -1.62167974      2.8001867799999998   -0.014187989999999999
     8   1     -1.6359729000000001      4.6460695399999992      2.5409651800000002
     9   1     -1.6139425999999999      2.7700068899999994      5.0849102200000003
    10   1     -1.6045737900000001      4.6109699299999996      7.5916314800000002
    11   1     -1.6079708699999999      2.7577023599999997             10.10827299
    12   1             -1.60432255      4.6142048199999994      12.618866949999999
    13   1     -3.1943097100000002      5.5375369499999989   -0.011105250000000001
    14   1             -3.18717183      7.3328336199999988      2.5409674400000002
    15   1     -3.2096633400000001      5.5286708999999989      5.0790801800000001
    16   1     -3.2018708299999998      7.3775706799999989      7.5916337800000004
    17   1     -3.2086442499999999       5.529258239999999             10.10440386
    18   1     -3.1989433300000001       7.376171939999999             12.61886898
    19   1     -4.7786090300000001      8.2681486599999978   -0.014185909999999999
    20   1             -4.63139711      10.027821159999998      2.5244653000000001
    21   1     -4.8008750500000001       8.289934719999998      5.0849098100000001
    22   1     -4.8077983499999997      10.147520019999998      7.5915435599999999
    23   1     -4.8085363900000004      8.3012619599999979      10.108275109999999
    24   1     -4.7879183300000001      10.142408759999999             12.62208562
    25   1              3.25513283    0.011064549999999998   -0.043613140000000002
    26   1      3.2362964600000002      1.8684774499999999      2.5316781499999998
    27   1      3.1973477099999998  -0.0067635599999999992      5.0673212400000001
    28   1      3.1897437000000002      1.8415914699999998      7.5838377599999998
    29   1      3.1902720800000002  -0.0079142799999999975      10.098006030000001
    30   1      3.2035584099999999      1.8495720999999998      12.611213469999999
    31   1      1.6371480300000001      2.8134951099999994   -0.043614979999999998
    32   1      1.6241171000000001      4.6438827999999992      2.5239211799999999
    33   1      1.5928171200000001      2.7723604099999997      5.0673215300000001
    34   1              1.58823074       4.614144089999999      7.5788146100000002
    35   1      1.5882883400000001      2.7668148699999997             10.09800618
    36   1               1.5916408      4.6258694999999994             12.61775782
    37   1  -0.0052360699999999998      5.5358447899999987   0.0077420900000000001
    38   1              0.01178066      7.3885674899999989      2.5240300900000001
    39   1             -0.01118981      5.5295096299999988      5.0480181399999999
    40   1             -0.01103663      7.3754021299999994      7.5755150799999997
    41   1  -0.0075864799999999996      5.5325722599999994             10.10033303
    42   1             -0.01259684      7.3744976099999988             12.62453964
    43   1     -1.6012345800000001      8.3001988599999983   0.0077393699999999998
    44   1             -1.55901588      10.157239869999998      2.5239233900000002
    45   1             -1.60969882      8.2982114499999984      5.0480201899999999
    46   1     -1.6027203699999999      10.141029979999999      7.5788191300000003
    47   1             -1.60524552      8.2998024699999977      10.100335100000001
    48   1     -1.5908590600000001      10.138123959999998      12.617749959999999
    49   1      6.4042148000000001  -0.0096261399999999983  -0.0042345100000000004
    50   1      6.4012647899999999      1.8489745299999998      2.5255845699999999
    51   1      6.3940125999999999  -0.0035819499999999995      5.0537867900000002
    52   1      6.3832572799999996      1.8398209599999997      7.5811426700000002
    53   1              6.38196575  -0.0037005499999999995             10.09693845
    54   1      6.3879518300000004      1.8405464899999997      12.628757800000001
    55   1      4.8012536900000002      2.7720025399999995  -0.0070931900000000001
    56   1      4.8018944799999996      4.6191742699999994      2.5255848799999998
    57   1              4.79409858      2.7678704699999996      5.0585762799999996
    58   1      4.7849669099999996      4.6081525799999987              7.58114007
    59   1      4.7897324000000001      2.7653460599999997      10.099350960000001
    60   1      4.7879423900000004      4.6118504799999993      12.628755419999999
    61   1               3.1937783      5.5510248699999991             -0.00423706
    62   1      3.2035226099999998      7.3960535299999988      2.5286633100000002
    63   1              3.19390559       5.539166869999999              5.05377951
    64   1              3.18472701      7.3785831899999987      7.5768673099999999
    65   1              3.18777687      5.5287993799999988             10.09693882
    66   1      3.1844473199999999      7.3726609899999991             12.61588252
    67   1              1.58108027      8.2946045699999988  -0.0060830299999999997
    68   1      1.6141267500000001      10.148959459999999              2.52866327
    69   1      1.5847241400000001      8.2967106799999986              5.05327182
    70   1               1.5895982      10.141424379999998      7.5768694999999999
    71   1      1.5899091599999999      8.2997097299999982      10.100446829999999
    72   1      1.5843280900000001      10.144141089999998             12.61588003
    73   1      9.5866458600000009   -0.019193919999999996             -0.01595773
    74   1      9.5961471199999995      1.8571640499999997              2.52683875
    75   1      9.5958981100000003   -0.011329119999999998      5.0516185800000004
    76   1      9.5719243299999999      1.8401329199999998      7.5824073600000004
    77   1      9.5689261299999995  -0.0012267499999999998             10.08955583
    78   1      9.5804962699999994      1.8356656999999998      12.626031299999999
    79   1      7.9866412799999997      2.7604345999999995  -0.0030410300000000001
    80   1      7.9861805099999996      4.6108251499999993      2.5238983199999998
    81   1      7.9831092200000002      2.7594981299999994      5.0582680399999997
    82   1      7.9777382100000001      4.6059509299999988      7.5814754100000004
    83   1      7.9818412500000004      2.7637629299999995             10.10627068
    84   1      7.9822391899999996      4.6085440399999991      12.628700309999999
    85   1      6.3839309999999996      5.5364164999999987  -0.0030432200000000001
    86   1      6.4064286499999996      7.3819284399999994      2.5268363800000002
    87   1      6.3813555600000003      5.5338346599999992      5.0582651399999996
    88   1              6.37956564      7.3694650399999988      7.5824120500000003
    89   1      6.3844158699999998      5.5305929099999993      10.106273030000001
    90   1      6.3799847700000001       7.379124759999999      12.626030979999999
    91   1      4.7767019700000004      8.3118723699999979             -0.01595512
    92   1      4.7981578899999997      10.151991759999998      2.5196271700000001
    93   1              4.78814224       8.315955869999998      5.0516208000000002
    94   1              4.79479335      10.150043939999998      7.5882357699999998
    95   1              4.78339596      8.2875488699999984      10.089560840000001
    96   1      4.7589028899999999      10.129322949999999             12.57617582
    97   2     0.26122963999999999     0.15082107999999997      1.9434506199999999
