(written by ASE)

97 atoms
2 atom types

0.0      12.880619210125166  xlo xhi
0.0      11.154943116692575  ylo yhi
0.0      15.046356078130312  zlo zhi
    -6.4403077717034334                       0                       0  xy xz yz

Masses

     1      178.48999995408445 # Hf
     2      15.998999995884349 # O

Atoms # atomic

     1   1      6.4327543295739167      11.150580907181897      15.022324485781098
     2   1  -0.0075568622997703363      1.8635206141774969      2.5317568606640335
     3   1      6.4317424247444226      11.149996264339855      5.0061743185493981
     4   1    0.001255031445663083      1.8584328523520353       7.527789899669429
     5   1   0.0012546153064211974  0.00072441391695721906      10.026291824093866
     6   1  -0.0085690187950733174      1.8641049346413938      12.547907206625389
     7   1      11.262349611460575       2.793465952453039      15.033316339757313
     8   1     -1.6132689067515824      4.6461070799262911      2.5149548928235688
     9   1       11.26255364659084      2.7933483549499778      5.0192474694386169
    10   1     -1.6107447255461762      4.6494152740887014      7.5274796249868645
    11   1     -1.6067492652498134      2.7868147875857203      10.024653270326692
    12   1     -1.6109662294777831      4.6499281676446316       12.53457069758827
    13   1     -3.2183663794033897      5.5785036607320242      15.045892006578885
    14   1     -3.2232966467254713      7.4347574282292914      2.5149551410592017
    15   1      9.6586903603513434      5.5764461628098738      5.0183247180137149
    16   1     -3.2191685238347234      7.4352871761176651      7.5274798434342225
    17   1      9.6579497468399875       5.576018588645141      10.029383042856701
    18   1     -3.2188361520296929      7.4348401282980507      12.534571253636086
    19   1      8.0503885611306352      8.3567480756785812      15.033316796510878
    20   1     -4.8302311391850763      10.216639447357544      2.5317575457943806
    21   1      8.0503888533243213      8.3569822128814106      5.0192480354158597
    22   1     -4.8302303214933202      10.226812915847788        7.52779004861081
    23   1     -4.8302306669570942      8.3700490655290505       10.02465371715083
    24   1     -4.8302309681138853      10.215470000484386      12.547907881826314
    25   1     -3.2125969296359274      11.150580484060582      15.022325250346848
    26   1      3.2277106251969463      1.8635201406845951      2.5317576351592086
    27   1     -3.2115836145942316       11.14999552891471      5.0061748150206649
    28   1      3.2189004524874192      1.8584325299738891      7.5277901776933396
    29   1      3.2189003385776904  0.00072404116722586329      10.026292171623751
    30   1      3.2287236382012843      1.8641043906282724      12.547908070485393
    31   1      1.6100769744996393      2.7974616683833275      15.022324485781098
    32   1      1.6100781264227471      4.6573525766437056      2.5207653244294286
    33   1      1.6100773877387089       2.798630228716585      5.0061743681965254
    34   1      1.6100785070606416      4.6440510125571643      7.5294281952715467
    35   1      1.6100778996646437      2.7872873234275004      10.026291843952718
    36   1      1.6100780659383409      4.6571183185490694      12.534834105383299
    37   1   0.0031435096203424858      5.5793433046875327      15.039126870657427
    38   1  -0.0017864252493116797      7.4355967901039239      2.5081900448554442
    39   1  -0.0013161589815756775      5.5792596072613838      5.0195105892803111
    40   1   0.0025185626782822132      7.4380807842388803      7.5246990979424577
    41   1 -0.00098212491418966171      5.5788124989958678      10.026602337082636
    42   1   0.0017766193571054523      7.4376536533440971      12.535756975961306
    43   1     -1.6068837467863792      8.3679932500178502      15.039127297622716
    44   1     -1.6018840220077615      10.220634830835369      2.5207657017475911
    45   1     -1.6091856080405844      8.3641714772459501      5.0195110758221517
    46   1     -1.6134020987756845      10.227284575223981      7.5294286420956853
    47   1     -1.6094062052836484      8.3646842499100753      10.026602813695053
    48   1     -1.6020871504496126      10.220751521649897      12.534834919596175
    49   1  5.0743568822166159e-05       11.15128555528878      15.039126979881106
    50   1      6.4403583888387139      1.8628146161121282      2.5149553297182825
    51   1      6.4425174018279918  0.00024681069369497465      5.0195110658927264
    52   1      6.4419632269640008      1.8589756464810034      7.5274797342105444
    53   1      6.4419627199774032  0.00018113622076961121      10.026602833553902
    54   1      6.4425170625504569      1.8589106570616383      12.534571372789191
    55   1      4.8384237679853719      2.7934655998519426      15.033317014958236
    56   1      4.8334249544141858      4.6461067273251944      2.5149549126824193
    57   1      4.8382210626264337      2.7933485564363196      5.0192478566862038
    58   1      4.8309022955181691      4.6494151431225808      7.5274799228696265
    59   1      4.8269051853156197       2.786815019295013      10.024654044821867
    60   1       4.831122026538579      4.6499284396511911      12.534571293353789
    61   1      3.2170120287847563      5.5793432543159476      15.039127108963633
    62   1      3.2219439237781407      7.4355964677257758      2.5081900647142952
    63   1      3.2214734905876794      5.5792597180788714      5.0195111056104276
    64   1      3.2176406090038587      7.4380811972858796      7.5246988397773995
    65   1      3.2211395470421933      5.5788126803335736      10.026602297364935
    66   1      3.2183807085844682      7.4376535425266095       12.53575696603188
    67   1      1.6100786755418448      8.3662073959809522      15.046201556413401
    68   1      1.6100788907721169      10.227428849518624      2.5081901242908473
    69   1      1.6100791087374313      8.3662070333055372      5.0097891159096353
    70   1      1.6100798369410985      10.222458775865078      7.5246991873072862
    71   1      1.6100793807439684      8.3662068418935149      10.031131237338316
    72   1      1.6100791117308701      10.223314387613128      12.535757055396708
    73   1      3.2201067170468125      11.151285857518292      15.039126969951679
    74   1      9.6604154402686859       1.862815049307762      2.5149549623295457
    75   1      9.6582573060374646  0.00024663943030485343      5.0195107382216912
    76   1      9.6588121019546751      1.8589753946230769      7.5274793568923828
    77   1      9.6588116352654172  0.00018131755847665025      10.026602426447464
    78   1      9.6582574100298739      1.8589103749807605      12.534570955753328
    79   1      8.0503867087549725      2.7866716919861756      15.045892423614751
    80   1      8.0503873370323049      4.6478934376790413      2.5078800184085139
    81   1      8.0503876463426955      2.7907860229255483      5.0183245094957831
    82   1      8.0503887575109481      4.6478927929227494      7.5229509332491169
    83   1      8.0503878882668012      2.7916408287282355      10.029383142150955
    84   1      8.0503876392617499       4.647892974260456      12.544293034818947
    85   1      6.4385219880527762      5.5785040032588045      15.045892056226011
    86   1       6.443453671485563      7.4347576297156328       2.514954902752994
    87   1      6.4420857875567954      5.5764465657825557       5.018325184696705
    88   1       6.439327483037931      7.4352876697592016       7.527479575339739
    89   1      6.4428265822653241       5.576019021840775      10.029383301021758
    90   1      6.4389930156279673      7.4348407932029774      12.534571412506892
    91   1      4.8270409977140236      8.3679938947741412      15.039126741574897
    92   1      4.8220415293122185      10.220635072618979      2.5207651655586227
    93   1      4.8293441472246874      8.3641726156437777         5.0195110162456
    94   1      4.8335613209000137        10.2272854113923      7.5294284037894776
    95   1      4.8295644927782932      8.3646849349636341      10.026602217929533
    96   1      4.8222444462318181      10.220752095885967      12.534834284112954
    97   2      1.6100768488434274     0.92957900588422748      1.2538628972871808
