(written by ASE)

97 atoms
2 atom types

0.0      12.785600000000001  xlo xhi
0.0       11.07265440262632  ylo yhi
0.0                 15.1533  zlo zhi
    -6.3928000000000003                       0                       0  xy xz yz

Masses

     1      178.48999995408445 # Hf
     2      15.998999995884349 # O

Atoms # atomic

     1   1  -0.0075013600000000003  -0.0043300299999999995   -0.024202399999999999
     2   1             -0.00750142      1.8497736399999998      2.5497516500000001
     3   1  -0.0085058000000000009   -0.004910359999999999              5.04175635
     4   1              0.00124547      1.8447234099999998      7.5812946400000003
     5   1              0.00124536  0.00071906999999999993      10.097554990000001
     6   1  -0.0085061100000000008      1.8503536499999997             12.63709308
     7   1     -1.6063322200000001      2.7728588799999994   -0.013132420000000001
     8   1             -1.60136872       4.611833289999999      2.5328302599999999
     9   1     -1.6061296899999999      2.7727421499999996      5.0549224199999996
    10   1     -1.5988631600000001      4.6151170799999992      7.5809821599999996
    11   1     -1.5948968699999999      2.7662567799999995      10.095904790000001
    12   1     -1.5990830300000001      4.6156261899999995      12.623661780000001
    13   1     -3.1946256800000001      5.5373516899999995 -0.00046736999999999999
    14   1             -3.19951988      7.3799120899999995      2.5328305100000001
    15   1     -3.1981618699999999      5.5353093699999993      5.0539931100000004
    16   1     -3.1954222099999998      7.3804379299999994              7.58098238
    17   1             -3.19889702      5.5348849499999995             10.10066818
    18   1     -3.1950922899999998      7.3799941799999988      12.623662339999999
    19   1     -4.7945998200000002      8.2951013199999988             -0.01313196
    20   1     -4.7946006099999998      10.141272489999999              2.54975234
    21   1     -4.7945995300000002      8.2953337299999976      5.0549229899999997
    22   1     -4.7945998000000003      10.151370909999999      7.5812947900000003
    23   1     -4.7945998400000001      8.3083041899999976             10.09590524
    24   1             -4.79460044      10.140111669999998      12.637093760000001
    25   1      3.2039002999999999  -0.0043304499999999987   -0.024201629999999998
    26   1              3.20389978      1.8497731699999997      2.5497524299999998
    27   1      3.2049061399999998   -0.004911089999999999      5.0417568499999996
    28   1               3.1951546      1.8447230899999998      7.5812949200000004
    29   1      3.1951547900000001  0.00071869999999999985             10.09755534
    30   1      3.2049053199999999      1.8503531099999997      12.637093950000001
    31   1      1.5981991200000001      2.7768251199999994   -0.024202399999999999
    32   1      1.5981999600000001      4.6229958299999989      2.5386819900000002
    33   1              1.59819953      2.7779850599999993      5.0417563999999997
    34   1              1.59820034      4.6097923899999991      7.5829445800000004
    35   1              1.59820004      2.7667258299999995      10.097555010000001
    36   1               1.5981999       4.622763299999999             12.62392706
    37   1              0.00311941      5.5381851399999995             -0.00728059
    38   1  -0.0017744600000000001      7.3807452599999994      2.5260173300000002
    39   1             -0.00130736       5.538102059999999      5.0551874100000003
    40   1              0.00249877      7.3832109299999988      7.5781818699999999
    41   1 -0.00097579000000000003      5.5376582499999989      10.097867709999999
    42   1   0.0017623000000000001       7.382786949999999      12.624856490000001
    43   1             -1.59503127       8.306263539999998  -0.0072801599999999999
    44   1             -1.59006873      10.145238399999998      2.5386823700000001
    45   1     -1.5973161499999999       8.302469959999998               5.0551879
    46   1     -1.6015018400000001      10.151839089999998      7.5829450300000003
    47   1     -1.5975351200000001      8.3029789499999982             10.09786819
    48   1     -1.5902703600000001      10.145354229999999             12.62392788
    49   1      6.3928485500000001  -0.0036305799999999996  -0.0072804799999999998
    50   1              6.39284812      1.8490728499999998      2.5328306999999999
    51   1      6.3949915099999997  0.00024498999999999994              5.05518789
    52   1      6.3944411199999998      1.8452621999999999      7.5809822699999998
    53   1      6.3944409200000001  0.00017979999999999998             10.09786821
    54   1              6.39499087      1.8451976899999998             12.62366246
    55   1      4.8027306799999998      2.7728585299999997   -0.013131739999999999
    56   1      4.7977684399999996      4.6118329399999993      2.5328302800000002
    57   1      4.8025294699999996      2.7727423499999997      5.0549228099999999
    58   1      4.7952643899999998      4.6151169499999991      7.5809824600000004
    59   1      4.7912970699999997      2.7662570099999995      10.095905569999999
    60   1      4.7954825000000003      4.6156264599999988      12.623662380000001
    61   1               3.1932795      5.5381850899999989  -0.0072803499999999997
    62   1              3.19817471      7.3807449399999987      2.5260173500000001
    63   1      3.1977080500000001      5.5381021699999993      5.0551879299999998
    64   1      3.1939031400000002       7.383211339999999      7.5781816099999997
    65   1      3.1973765699999999      5.5376584299999987      10.097867669999999
    66   1      3.1946377799999999      7.3827868399999987             12.62485648
    67   1               1.5981999      8.3044908599999978             -0.00015562
    68   1      1.5981998100000001      10.151982299999998      2.5260174100000001
    69   1      1.5982003300000001      8.3044904999999982      5.0453968400000004
    70   1      1.5982007499999999      10.147048889999999      7.5781819600000002
    71   1               1.5982006      8.3044903099999985              10.1024288
    72   1      1.5982000300000001      10.147898189999998             12.62485657
    73   1              9.58915045  -0.0036302799999999996  -0.0072804899999999997
    74   1      9.5891510899999997      1.8490732799999998      2.5328303299999999
    75   1      9.5870091800000008  0.00024481999999999992      5.0551875600000002
    76   1      9.5875595800000006      1.8452619499999998      7.5809818900000003
    77   1      9.5875594199999998  0.00017997999999999997              10.0978678
    78   1      9.5870089800000002      1.8451974099999997      12.623662039999999
    79   1      7.9909992499999998      2.7661147399999995 -0.00046694999999999999
    80   1      7.9909995699999996      4.6136064699999988      2.5257051000000001
    81   1      7.9910001800000003      2.7701987199999993      5.0539928999999999
    82   1      7.9910009799999999      4.6136058299999991      7.5764212799999999
    83   1      7.9910004199999998      2.7710472199999994      10.100668280000001
    84   1      7.9909998699999996      4.6136060099999989             12.63345322
    85   1      6.3910246600000002      5.5373520299999992 -0.00046732000000000002
    86   1      6.3959196599999997      7.3799122899999992      2.5328302699999998
    87   1      6.3945621700000004      5.5353097699999987      5.0539935800000002
    88   1      6.3918239100000003      7.3804384199999991      7.5809821099999999
    89   1      6.3952974999999999      5.5348853799999995             10.10066844
    90   1      6.3914919100000001      7.3799948399999993              12.6236625
    91   1      4.7914309700000004      8.3062641799999977  -0.0072807200000000001
    92   1      4.7864680799999997      10.145238639999999      2.5386818299999998
    93   1      4.7937171300000001      8.3024710899999974      5.0551878400000003
    94   1      4.7979028899999996      10.151839919999999              7.58294479
    95   1      4.7939358500000004      8.3029796299999976             10.09786759
    96   1      4.7866695000000004      10.145354799999998             12.62392724
    97   2      1.5981993000000001     0.92272160999999986              1.26277489
