LAMMPS (27 Jun 2024)
OMP_NUM_THREADS environment is not set. Defaulting to 1 thread. (src/comm.cpp:98)
  using 1 OpenMP thread(s) per MPI task
Reading data file ...
  orthogonal box = (0 0 0) to (22.422218 22.19224 20.321894)
  5 by 2 by 2 MPI processor grid
  reading atoms ...
  448 atoms
  read_data CPU = 0.005 seconds
**************** Begin of POD Potentials ****************
species: Hf 
periodic boundary conditions: 1 1 1
number of environment clusters: 8
number of principal compoments: 2
inner cut-off radius: 1
outer cut-off radius: 5
cut-off function type: 1
gaussian_exponents: 
polynomial_degrees: 
bessel polynomial degree: 4
inverse polynomial degree: 10
one-body potential: 1
two-body radial basis functions: 8
three-body radial basis functions: 8
three-body angular degree: 6
four-body radial basis functions: 7
four-body angular degree: 5
five-body radial basis functions: 0
five-body angular degree: 0
six-body radial basis functions: 0
six-body angular degree: 0
seven-body radial basis functions: 0
seven-body angular degree: 0
number of local descriptors per element for one-body potential: 1
number of local descriptors per element for two-body potential: 8
number of local descriptors per element for three-body potential: 56
number of local descriptors per element for four-body potential: 112
number of local descriptors per element for five-body potential: 0
number of local descriptors per element for six-body potential: 0
number of local descriptors per element for seven-body potential: 0
number of local descriptors per element for all potentials: 177
number of global descriptors: 1409
**************** End of POD Potentials ****************

**************** Begin of Model Coefficients ****************
total number of coefficients for POD potential: 1409
total number of elements for PCA projection matrix: 352
total number of elements for PCA centroids: 16
**************** End of Model Coefficients ****************


CITE-CITE-CITE-CITE-CITE-CITE-CITE-CITE-CITE-CITE-CITE-CITE-CITE

Your simulation uses code contributions which should be cited:
- Type Label Framework: https://doi.org/10.1021/acs.jpcb.3c08419
The log file lists these citations in BibTeX format.

CITE-CITE-CITE-CITE-CITE-CITE-CITE-CITE-CITE-CITE-CITE-CITE-CITE

Neighbor list info ...
  update: every = 1 steps, delay = 0 steps, check = no
  max neighbors/atom: 2000, page size: 100000
  master list distance cutoff = 7
  ghost atom cutoff = 7
  binsize = 3.5, bins = 7 7 6
  1 neighbor lists, perpetual/occasional/extra = 1 0 0
  (1) pair pod, perpetual
      attributes: full, newton on
      pair build: full/bin/atomonly
      stencil: full/bin/3d
      bin: standard
Setting up Verlet run ...
  Unit style    : metal
  Current step  : 0
  Time step     : 0.001
Per MPI rank memory allocation (min/avg/max) = 2.586 | 2.586 | 2.586 Mbytes
   Step          Temp          TotEng         PotEng         KinEng         Press          Volume    
         0   300           -3231.7429     -3249.0767      17.333785      27701.818      10112.159    
       100   311.61456     -3235.858      -3253.8629      18.004867      9325.9915      10112.159    
       200   243.87919     -3236.2928     -3250.3839      14.091165      10487.38       10112.159    
       300   342.96578     -3235.0981     -3254.9144      19.816318      9292.3802      10112.159    
       400   342.06759     -3237.5063     -3257.2708      19.76442       8957.7481      10112.159    
       500   319.43443     -3240.1046     -3258.5613      18.456693      8375.4819      10112.159    
       600   277.16219     -3241.6879     -3257.7021      16.014233      8053.2215      10112.159    
       700   272.50362     -3241.1093     -3256.8544      15.745064      8956.089       10112.159    
       800   294.12049     -3239.6705     -3256.6646      16.994072      9052.1054      10112.159    
       900   304.23855     -3238.7576     -3256.3363      17.578686      8549.891       10112.159    
      1000   344.47848     -3238.303      -3258.2068      19.90372       8118.5418      10112.159    
      1100   300.1724      -3239.4539     -3256.7976      17.343747      8752.6494      10112.159    
      1200   300.65004     -3240.3998     -3257.7712      17.371345      8165.608       10112.159    
      1300   291.45063     -3240.963      -3257.8028      16.839809      8365.0044      10112.159    
      1400   274.49805     -3240.8386     -3256.6989      15.860301      8266.7664      10112.159    
      1500   313.44184     -3239.1516     -3257.2621      18.110445      8339.3424      10112.159    
      1600   326.60458     -3238.6552     -3257.5261      18.870979      8344.4912      10112.159    
      1700   283.35298     -3239.4099     -3255.7818      16.371932      8988.2958      10112.159    
      1800   284.70487     -3240.0944     -3256.5445      16.450044      8725.4896      10112.159    
      1900   306.07793     -3240.5241     -3258.2091      17.684964      8244.6786      10112.159    
      2000   277.41115     -3241.1004     -3257.129       16.028618      7964.0176      10112.159    
      2100   316.82493     -3241.3135     -3259.6194      18.305918      8089.6086      10112.159    
      2200   275.59036     -3241.1669     -3257.0904      15.923414      8079.4756      10112.159    
      2300   303.95173     -3239.6309     -3257.193       17.562114      8920.5096      10112.159    
      2400   311.53656     -3239.1586     -3257.159       18.00036       8468.2882      10112.159    
      2500   309.46179     -3239.1536     -3257.0341      17.880481      8675.2173      10112.159    
      2600   307.20192     -3239.7815     -3257.5314      17.749908      8040.3495      10112.159    
      2700   291.15352     -3240.8949     -3257.7175      16.822642      8298.7544      10112.159    
      2800   275.27607     -3241.1393     -3257.0446      15.905255      8880.0013      10112.159    
      2900   311.35155     -3239.8139     -3257.8036      17.98967       8372.7144      10112.159    
      3000   297.85676     -3238.8995     -3256.1094      17.209951      8903.0237      10112.159    
      3100   316.8857      -3238.8458     -3257.1553      18.309429      8902.489       10112.159    
      3200   305.04181     -3239.7614     -3257.3865      17.625097      8365.7652      10112.159    
      3300   292.82928     -3240.4094     -3257.3289      16.919466      8648.5815      10112.159    
      3400   295.55069     -3240.4006     -3257.4773      17.076708      8570.441       10112.159    
      3500   306.22788     -3240.2031     -3257.8968      17.693628      8293.3258      10112.159    
      3600   304.81169     -3239.8653     -3257.4771      17.611801      8536.1416      10112.159    
      3700   295.47874     -3239.5015     -3256.574       17.07255       8933.1663      10112.159    
      3800   302.13343     -3239.071      -3256.5281      17.457053      8991.5474      10112.159    
      3900   298.4085      -3238.9856     -3256.2275      17.24183       8717.8172      10112.159    
      4000   307.33257     -3239.4637     -3257.2211      17.757456      8647.8685      10112.159    
      4100   309.0122      -3240.3824     -3258.2369      17.854504      8275.1246      10112.159    
      4200   293.80939     -3241.2761     -3258.2522      16.976096      8445.4022      10112.159    
      4300   267.10915     -3241.2312     -3256.6646      15.433376      8900.4937      10112.159    
      4400   305.40323     -3239.4581     -3257.1041      17.64598       8656.0183      10112.159    
      4500   308.42131     -3239.0632     -3256.8836      17.820363      8745.79        10112.159    
      4600   301.26294     -3239.2245     -3256.6312      17.406757      8438.3992      10112.159    
      4700   305.52229     -3240.1087     -3257.7616      17.652859      8500.444       10112.159    
      4800   274.19561     -3241.6656     -3257.5084      15.842826      8533.183       10112.159    
      4900   285.54474     -3241.4265     -3257.9251      16.498571      8370.4073      10112.159    
      5000   299.57039     -3240.4134     -3257.7224      17.308963      8255.5503      10112.159    
      5100   300.88427     -3239.7294     -3257.1143      17.384878      8386.9287      10112.159    
      5200   302.03229     -3239.6079     -3257.0592      17.45121       8825.8361      10112.159    
      5300   295.55134     -3239.4547     -3256.5315      17.076745      8828.5748      10112.159    
      5400   307.27158     -3238.8907     -3256.6447      17.753932      8917.1571      10112.159    
      5500   303.04286     -3240.1758     -3257.6854      17.5096        8364.9945      10112.159    
      5600   286.90206     -3241.413      -3257.99        16.576996      8213.4641      10112.159    
      5700   293.43614     -3241.1723     -3258.1268      16.954531      8595.1147      10112.159    
      5800   296.66955     -3240.1206     -3257.2619      17.141355      8528.0241      10112.159    
      5900   299.93025     -3239.6983     -3257.028       17.329755      8939.4844      10112.159    
      6000   297.01768     -3239.8755     -3257.0369      17.161469      8911.1662      10112.159    
      6100   300.12752     -3240.227      -3257.5681      17.341153      8646.2778      10112.159    
      6200   294.23053     -3240.7697     -3257.7701      17.00043       8701.4906      10112.159    
      6300   299.27261     -3241.0928     -3258.3845      17.291757      8537.7368      10112.159    
      6400   296.51585     -3240.1504     -3257.2829      17.132474      8406.1079      10112.159    
      6500   297.88654     -3239.2581     -3256.4698      17.211671      9356.751       10112.159    
      6600   313.63015     -3239.0158     -3257.1371      18.121326      8756.3972      10112.159    
      6700   285.89273     -3240.0901     -3256.6088      16.518678      8893.5663      10112.159    
      6800   297.29019     -3241.16       -3258.3372      17.177214      8332.7992      10112.159    
      6900   289.81019     -3240.9356     -3257.6806      16.745026      8310.4694      10112.159    
      7000   292.29969     -3240.3854     -3257.2742      16.888867      8689.8133      10112.159    
      7100   309.29399     -3239.9173     -3257.7881      17.870786      8692.0056      10112.159    
      7200   287.18156     -3239.8644     -3256.4576      16.593145      8886.9724      10112.159    
      7300   319.31939     -3238.9834     -3257.4334      18.450046      8822.5354      10112.159    
      7400   306.11715     -3238.7684     -3256.4556      17.68723       8978.6227      10112.159    
      7500   300.9007      -3239.1839     -3256.5697      17.385827      9032.2692      10112.159    
      7600   289.92176     -3240.5774     -3257.3289      16.751472      8459.3433      10112.159    
      7700   293.99993     -3240.8867     -3257.8738      16.987106      8560.8507      10112.159    
      7800   303.5331      -3240.3552     -3257.8932      17.537926      8646.3048      10112.159    
      7900   314.86703     -3238.9712     -3257.164       18.192792      9189.9624      10112.159    
      8000   305.5813      -3238.1739     -3255.8302      17.656269      9361.15        10112.159    
      8100   299.31927     -3238.8376     -3256.132       17.294453      8941.4417      10112.159    
      8200   313.79232     -3239.5958     -3257.7265      18.130696      8766.558       10112.159    
      8300   299.0004      -3240.1121     -3257.3881      17.276029      8824.0534      10112.159    
      8400   294.51443     -3239.9929     -3257.0098      17.016833      8896.3015      10112.159    
      8500   292.70137     -3239.9247     -3256.8367      16.912076      9034.6774      10112.159    
      8600   277.14752     -3240.6258     -3256.6392      16.013386      8947.6018      10112.159    
      8700   310.8751      -3241.1323     -3259.0945      17.962141      8246.8956      10112.159    
      8800   285.52878     -3241.3221     -3257.8197      16.497649      8558.548       10112.159    
      8900   285.23993     -3240.0632     -3256.5442      16.480959      8921.8167      10112.159    
      9000   313.11018     -3238.8912     -3256.9824      18.091282      8996.1913      10112.159    
      9100   306.27534     -3238.9919     -3256.6883      17.69637       8808.1023      10112.159    
      9200   304.69174     -3239.7496     -3257.3545      17.604871      8888.9311      10112.159    
      9300   280.76135     -3240.4485     -3256.6707      16.22219       8681.9846      10112.159    
      9400   298.49949     -3240.3396     -3257.5867      17.247087      8611.9995      10112.159    
      9500   288.22606     -3240.2803     -3256.9338      16.653495      8625.2399      10112.159    
      9600   310.60013     -3239.5343     -3257.4805      17.946254      8975.1329      10112.159    
      9700   300.94727     -3239.4661     -3256.8546      17.388518      9039.2016      10112.159    
      9800   294.16926     -3240.3486     -3257.3455      16.996889      8997.0393      10112.159    
      9900   282.85689     -3241.4712     -3257.8145      16.343269      8586.104       10112.159    
     10000   306.26001     -3240.7738     -3258.4692      17.695485      8535.998       10112.159    
     10100   285.82054     -3239.7499     -3256.2645      16.514507      9198.3644      10112.159    
     10200   304.45576     -3238.6971     -3256.2883      17.591236      9023.9257      10112.159    
     10300   312.81582     -3238.7183     -3256.7926      18.074274      9022.6588      10112.159    
     10400   295.0327      -3239.4487     -3256.4955      17.046779      9245.0486      10112.159    
     10500   300.72793     -3240.2903     -3257.6661      17.375845      8764.0715      10112.159    
     10600   285.51131     -3240.6838     -3257.1804      16.496639      8657.5862      10112.159    
     10700   307.65578     -3239.8228     -3257.5989      17.776131      8959.8097      10112.159    
     10800   316.99224     -3238.0025     -3256.3181      18.315585      9325.6358      10112.159    
     10900   321.8647      -3237.3604     -3255.9575      18.597112      9280.3179      10112.159    
     11000   298.81262     -3238.8553     -3256.1205      17.265179      9159.1419      10112.159    
     11100   304.18847     -3239.4926     -3257.0684      17.575792      9014.5704      10112.159    
     11200   297.07607     -3240.4244     -3257.5892      17.164843      8754.096       10112.159    
     11300   292.24676     -3240.608      -3257.4938      16.885809      8954.5112      10112.159    
     11400   306.27624     -3240.1133     -3257.8097      17.696422      8722.5784      10112.159    
     11500   307.15213     -3239.508      -3257.2551      17.74703       9158.8156      10112.159    
     11600   312.15697     -3237.7702     -3255.8064      18.036206      9438.2954      10112.159    
     11700   308.14868     -3238.1941     -3255.9987      17.80461       8940.4849      10112.159    
     11800   299.29483     -3239.6387     -3256.9318      17.293041      9035.599       10112.159    
     11900   301.73092     -3240.2723     -3257.7061      17.433797      8761.9247      10112.159    
     12000   288.2546      -3240.5318     -3257.187       16.655145      8820.2779      10112.159    
     12100   306.10944     -3239.8305     -3257.5173      17.686784      9103.897       10112.159    
     12200   305.86676     -3238.8512     -3256.524       17.672763      9030.9274      10112.159    
     12300   325.31829     -3237.0963     -3255.893       18.796658      9426.331       10112.159    
     12400   327.19603     -3237.4838     -3256.389       18.905153      9381.8734      10112.159    
     12500   305.97581     -3238.7715     -3256.4506      17.679063      9436.0041      10112.159    
     12600   307.03202     -3239.9397     -3257.6798      17.74009       8564.2958      10112.159    
     12700   298.63376     -3240.4406     -3257.6954      17.254845      8665.7497      10112.159    
     12800   292.73091     -3240.4479     -3257.3617      16.913783      9250.101       10112.159    
     12900   295.34795     -3239.8345     -3256.8995      17.064993      8806.006       10112.159    
     13000   316.91406     -3238.4637     -3256.7748      18.311068      8947.4056      10112.159    
     13100   309.99065     -3238.8836     -3256.7946      17.911038      9126.1549      10112.159    
     13200   303.13379     -3239.9789     -3257.4937      17.514854      8858.75        10112.159    
     13300   284.2995      -3240.5779     -3257.0045      16.426622      9009.8947      10112.159    
     13400   312.41597     -3240.4424     -3258.4935      18.051171      8554.9683      10112.159    
     13500   287.75304     -3240.3492     -3256.9753      16.626165      8771.3469      10112.159    
     13600   313.70193     -3239.4627     -3257.5882      18.125473      9198.1954      10112.159    
     13700   294.94694     -3239.4333     -3256.4751      17.041823      9174.5562      10112.159    
     13800   322.50268     -3238.3815     -3257.0154      18.633974      9179.3227      10112.159    
     13900   309.76544     -3237.9556     -3255.8537      17.898026      9256.5291      10112.159    
     14000   316.47479     -3238.8721     -3257.1578      18.285687      9397.162       10112.159    
     14100   289.58079     -3240.203      -3256.9347      16.731771      9141.301       10112.159    
     14200   296.45053     -3240.447      -3257.5757      17.1287        8591.9896      10112.159    
     14300   306.21028     -3240.2281     -3257.9207      17.692611      8878.2582      10112.159    
     14400   302.13159     -3239.1969     -3256.6539      17.456947      9140.1984      10112.159    
     14500   318.63531     -3237.9576     -3256.3682      18.41052       9220.7998      10112.159    
     14600   301.08801     -3238.6105     -3256.0071      17.39665       9378.6606      10112.159    
     14700   295.49708     -3240.5794     -3257.653       17.07361       8968.2179      10112.159    
     14800   301.25055     -3240.6037     -3258.0098      17.406042      8749.9674      10112.159    
     14900   298.59026     -3240.092      -3257.3443      17.252332      8517.4594      10112.159    
     15000   307.85314     -3239.07       -3256.8575      17.787534      9178.2181      10112.159    
     15100   302.13425     -3238.7758     -3256.2329      17.457101      9191.6662      10112.159    
     15200   309.40093     -3239.8289     -3257.7059      17.876965      8941.49        10112.159    
     15300   283.39727     -3241.3673     -3257.7418      16.374492      8470.5456      10112.159    
     15400   299.13033     -3240.685      -3257.9685      17.283536      8816.8777      10112.159    
     15500   280.39641     -3239.7029     -3255.904       16.201104      9420.1167      10112.159    
     15600   323.87181     -3238.8994     -3257.6124      18.713081      9321.5895      10112.159    
     15700   292.56046     -3239.4943     -3256.3982      16.903934      9223.0624      10112.159    
     15800   309.21226     -3239.6337     -3257.4997      17.866063      8973.4671      10112.159    
     15900   286.87523     -3240.8805     -3257.4559      16.575446      8640.2466      10112.159    
     16000   278.54229     -3241.6208     -3257.7147      16.093975      8747.1838      10112.159    
     16100   302.10174     -3240.6387     -3258.0939      17.455222      8787.735       10112.159    
     16200   285.03245     -3240.5404     -3257.0094      16.468971      8714.9669      10112.159    
     16300   298.4582      -3239.7535     -3256.9982      17.244702      9080.0845      10112.159    
     16400   315.89665     -3238.8467     -3257.099       18.252282      8794.8092      10112.159    
     16500   310.22566     -3238.7184     -3256.643       17.924617      9233.9489      10112.159    
     16600   305.15052     -3239.7527     -3257.3841      17.631379      9065.1907      10112.159    
     16700   286.16932     -3240.8334     -3257.368       16.534659      8722.7544      10112.159    
     16800   284.20437     -3240.6361     -3257.0572      16.421125      8881.3145      10112.159    
     16900   319.65073     -3239.5519     -3258.0211      18.469191      8858.9613      10112.159    
     17000   296.89219     -3239.2869     -3256.4411      17.154218      9100.7922      10112.159    
     17100   313.03657     -3238.6928     -3256.7798      18.087029      8906.6519      10112.159    
     17200   325.70053     -3237.8335     -3256.6522      18.818744      9065.9438      10112.159    
     17300   291.74992     -3239.0592     -3255.9163      16.857102      9367.2619      10112.159    
     17400   298.0446      -3240.1386     -3257.3594      17.220804      8970.9668      10112.159    
     17500   294.40862     -3240.7389     -3257.7496      17.01072       8496.339       10112.159    
     17600   305.46402     -3240.1657     -3257.8152      17.649493      8779.6545      10112.159    
     17700   305.04788     -3238.8743     -3256.4997      17.625448      9273.3229      10112.159    
     17800   309.98768     -3238.5236     -3256.4344      17.910867      9252.1107      10112.159    
     17900   290.14975     -3240.4939     -3257.2585      16.764645      8915.5034      10112.159    
     18000   297.04792     -3241.2306     -3258.3938      17.163216      8818.0235      10112.159    
     18100   290.85796     -3240.8726     -3257.6781      16.805565      8539.4467      10112.159    
     18200   295.20771     -3239.6525     -3256.7094      17.05689       9285.5234      10112.159    
     18300   309.47312     -3238.8598     -3256.7409      17.881136      9182.8267      10112.159    
     18400   297.9008      -3239.2243     -3256.4368      17.212495      9259.0129      10112.159    
     18500   297.75622     -3240.3837     -3257.5878      17.204142      8809.6593      10112.159    
     18600   288.95053     -3241.8295     -3258.5249      16.695355      8396.2036      10112.159    
     18700   283.81607     -3241.4763     -3257.8749      16.398689      8662.9119      10112.159    
     18800   299.4235      -3240.2071     -3257.5076      17.300476      8482.3362      10112.159    
     18900   293.41374     -3239.4428     -3256.396       16.953236      9008.2968      10112.159    
     19000   310.18055     -3238.8844     -3256.8064      17.92201       9408.4617      10112.159    
     19100   307.41753     -3239.687      -3257.4493      17.762365      8879.8124      10112.159    
     19200   292.41485     -3240.9572     -3257.8527      16.895521      8443.2025      10112.159    
     19300   288.98102     -3240.7284     -3257.4255      16.697117      9107.2077      10112.159    
     19400   280.59574     -3240.2113     -3256.424       16.212621      9302.0716      10112.159    
     19500   322.34273     -3239.0207     -3257.6454      18.624732      8933.1397      10112.159    
     19600   293.61346     -3238.9848     -3255.9495      16.964776      8892.1685      10112.159    
     19700   316.99099     -3238.7122     -3257.0277      18.315513      9270.3811      10112.159    
     19800   295.6742      -3239.8008     -3256.8847      17.083844      9114.5546      10112.159    
     19900   300.52345     -3240.6217     -3257.9857      17.36403       8226.7646      10112.159    
     20000   298.68178     -3240.9813     -3258.239       17.257619      8780.4178      10112.159    
     20100   296.40503     -3240.3322     -3257.4583      17.126071      8938.1465      10112.159    
     20200   293.56179     -3239.0098     -3255.9716      16.96179       9377.5778      10112.159    
     20300   318.29543     -3238.474      -3256.8649      18.390883      8863.784       10112.159    
     20400   310.87854     -3239.0838     -3257.0461      17.962339      9201.4058      10112.159    
     20500   298.9552      -3240.4293     -3257.7028      17.273418      8873.1205      10112.159    
     20600   274.42847     -3241.4184     -3257.2747      15.856281      8739.5616      10112.159    
     20700   300.40891     -3240.8849     -3258.2423      17.357412      8518.887       10112.159    
     20800   300.92397     -3239.7259     -3257.113       17.387172      8902.0816      10112.159    
     20900   309.30045     -3238.9583     -3256.8294      17.871159      8988.1438      10112.159    
     21000   289.30083     -3239.4872     -3256.2028      16.715595      9176.1231      10112.159    
     21100   303.70269     -3240.3498     -3257.8976      17.547724      8770.186       10112.159    
     21200   287.23718     -3241.4005     -3257.9969      16.596359      8447.7488      10112.159    
     21300   287.88127     -3241.0287     -3257.6623      16.633574      8798.7929      10112.159    
     21400   313.65495     -3239.6083     -3257.731       18.122759      9219.948       10112.159    
     21500   294.83638     -3239.423      -3256.4584      17.035435      9289.2642      10112.159    
     21600   300.3051      -3239.3813     -3256.7327      17.351414      8939.3762      10112.159    
     21700   306.53288     -3239.7163     -3257.4276      17.711251      8977.5504      10112.159    
     21800   300.99265     -3240.5512     -3257.9424      17.39114       8419.9889      10112.159    
     21900   288.02147     -3241.3291     -3257.9707      16.641675      8768.8859      10112.159    
     22000   286.47711     -3241.4295     -3257.9819      16.552442      8411.2283      10112.159    
     22100   307.27939     -3239.9359     -3257.6903      17.754384      8844.1258      10112.159    
     22200   316.07252     -3239.135      -3257.3975      18.262444      9340.0314      10112.159    
     22300   287.73188     -3239.5665     -3256.1915      16.624942      9072.3496      10112.159    
     22400   306.53322     -3239.8276     -3257.5388      17.71127       8867.6851      10112.159    
     22500   281.06295     -3241.0147     -3257.2543      16.239616      8692.0853      10112.159    
     22600   290.95655     -3241.2972     -3258.1085      16.811261      8509.4485      10112.159    
     22700   303.52674     -3240.2406     -3257.7781      17.537558      8859.8153      10112.159    
     22800   314.56463     -3239.1336     -3257.309       18.175319      8899.8103      10112.159    
     22900   284.43402     -3239.5158     -3255.9502      16.434394      8919.7659      10112.159    
     23000   308.64036     -3239.2756     -3257.1086      17.833019      9186.5362      10112.159    
     23100   291.95392     -3240.0319     -3256.9008      16.868888      8980.0677      10112.159    
     23200   301.42773     -3241.0067     -3258.423       17.416278      8590.8274      10112.159    
     23300   281.72732     -3241.2897     -3257.5677      16.278003      8839.3206      10112.159    
     23400   299.7944      -3239.8519     -3257.1738      17.321906      9046.6572      10112.159    
     23500   290.21287     -3239.0258     -3255.7941      16.768292      9320.5712      10112.159    
     23600   316.04619     -3239.0692     -3257.3301      18.260923      9343.6629      10112.159    
     23700   310.86136     -3239.656      -3257.6173      17.961347      8875.5292      10112.159    
     23800   288.22752     -3240.1567     -3256.8102      16.65358       8879.8471      10112.159    
     23900   305.34755     -3239.8242     -3257.467       17.642763      9160.8498      10112.159    
     24000   298.13669     -3238.9418     -3256.1679      17.226124      9367.4877      10112.159    
     24100   312.37308     -3238.2965     -3256.3452      18.048693      9280.3741      10112.159    
     24200   316.6713      -3239.2046     -3257.5016      18.297041      8836.78        10112.159    
     24300   299.97032     -3240.5095     -3257.8416      17.332071      8675.7055      10112.159    
     24400   283.48413     -3240.7857     -3257.1653      16.379511      9054.813       10112.159    
     24500   283.69934     -3240.3572     -3256.7492      16.391945      9443.6937      10112.159    
     24600   300.03448     -3239.7728     -3257.1086      17.335778      8900.0361      10112.159    
     24700   319.03957     -3239.3822     -3257.8161      18.433878      8745.2515      10112.159    
     24800   303.46449     -3239.6692     -3257.2032      17.533961      8927.5701      10112.159    
     24900   283.42093     -3240.0369     -3256.4127      16.375859      9083.2872      10112.159    
     25000   305.92287     -3239.9299     -3257.6059      17.676004      8638.1745      10112.159    
     25100   292.33387     -3240.5335     -3257.4243      16.890842      8854.9178      10112.159    
     25200   299.98643     -3240.9104     -3258.2434      17.333001      8603.266       10112.159    
     25300   297.77688     -3240.4725     -3257.6778      17.205335      8849.8956      10112.159    
     25400   297.62961     -3239.316      -3256.5128      17.196826      9500.5039      10112.159    
     25500   293.50043     -3238.8835     -3255.8418      16.958245      9157.8741      10112.159    
     25600   326.27458     -3239.1273     -3257.9792      18.851912      8469.7793      10112.159    
     25700   294.90805     -3240.8969     -3257.9365      17.039576      8810.5238      10112.159    
     25800   286.46975     -3241.0307     -3257.5827      16.552017      8857.5926      10112.159    
     25900   286.62439     -3240.3194     -3256.8803      16.560952      9164.683       10112.159    
     26000   316.9288      -3239.0084     -3257.3203      18.311919      8823.4092      10112.159    
     26100   309.39808     -3238.6676     -3256.5444      17.8768        8985.9425      10112.159    
     26200   302.74438     -3239.0703     -3256.5627      17.492354      9435.4137      10112.159    
     26300   312.44586     -3239.3822     -3257.4351      18.052898      8829.0623      10112.159    
     26400   297.07377     -3240.1418     -3257.3065      17.16471       9021.6761      10112.159    
     26500   295.695       -3240.5457     -3257.6308      17.085046      9035.4819      10112.159    
     26600   284.97457     -3240.5236     -3256.9892      16.465627      9064.183       10112.159    
     26700   313.08066     -3239.4166     -3257.5062      18.089577      8705.5097      10112.159    
     26800   321.20428     -3238.3408     -3256.8997      18.558953      9031.1924      10112.159    
     26900   314.3643      -3238.1068     -3256.2705      18.163745      9380.9313      10112.159    
     27000   269.60717     -3240.2869     -3255.8646      15.577709      9307.6987      10112.159    
     27100   307.14199     -3240.2798     -3258.0263      17.746444      8572.8928      10112.159    
     27200   289.43338     -3240.3968     -3257.12        16.723254      8973.5004      10112.159    
     27300   320.59808     -3239.4444     -3257.9683      18.523928      8917.4545      10112.159    
     27400   288.04563     -3239.4654     -3256.1085      16.643071      9333.2131      10112.159    
     27500   298.71922     -3239.5496     -3256.8094      17.259783      8858.3091      10112.159    
     27600   291.2936      -3240.4957     -3257.3264      16.830736      8958.263       10112.159    
     27700   303.09997     -3240.9988     -3258.5117      17.5129        8698.8566      10112.159    
     27800   270.8241      -3241.2811     -3256.9292      15.648023      9050.7543      10112.159    
     27900   318.51421     -3239.6718     -3258.0753      18.403523      8967.1244      10112.159    
     28000   294.09025     -3239.1698     -3256.1621      16.992324      9446.2981      10112.159    
     28100   309.56574     -3238.9885     -3256.875       17.886487      9416.3783      10112.159    
     28200   295.24446     -3240.3873     -3257.4463      17.059014      8927.7444      10112.159    
     28300   289.99915     -3241.2646     -3258.0205      16.755943      8594.7878      10112.159    
     28400   292.57294     -3240.8271     -3257.7318      16.904655      9031.4914      10112.159    
     28500   300.25061     -3239.7903     -3257.1386      17.348266      8971.8386      10112.159    
     28600   297.2672      -3239.5264     -3256.7023      17.175886      9184.6036      10112.159    
     28700   303.56188     -3239.7003     -3257.2399      17.539589      8977.3809      10112.159    
     28800   292.97243     -3240.2032     -3257.1309      16.927738      8695.1246      10112.159    
     28900   293.8202      -3241.431      -3258.4078      16.976721      8677.7874      10112.159    
     29000   280.52163     -3241.911      -3258.1193      16.208339      8917.0934      10112.159    
     29100   283.06051     -3240.7118     -3257.0668      16.355034      9287.6908      10112.159    
     29200   293.36467     -3239.6585     -3256.6089      16.950401      9056.5942      10112.159    
     29300   326.61515     -3238.984      -3257.8556      18.87159       8916.677       10112.159    
     29400   294.06251     -3239.913      -3256.9037      16.990721      9238.7193      10112.159    
     29500   299.58969     -3240.1372     -3257.4473      17.310078      8920.6129      10112.159    
     29600   279.99094     -3240.3086     -3256.4863      16.177676      9329.1366      10112.159    
     29700   311.34896     -3239.6843     -3257.6738      17.98952       8721.3701      10112.159    
     29800   328.08589     -3238.6049     -3257.5614      18.956568      8899.1614      10112.159    
     29900   298.51553     -3237.2226     -3254.4706      17.248014      10079.304      10112.159    
     30000   333.86003     -3237.2186     -3256.5088      19.290194      9324.6363      10112.159    
     30100   302.88716     -3239.378      -3256.8786      17.500603      8868.6549      10112.159    
     30200   313.73664     -3239.8192     -3257.9467      18.127479      8877.8982      10112.159    
     30300   297.40298     -3240.4611     -3257.6448      17.183731      8777.7895      10112.159    
     30400   282.68855     -3241.0416     -3257.3751      16.333542      8598.6218      10112.159    
     30500   309.95274     -3240.0741     -3257.983       17.908847      8755.92        10112.159    
     30600   286.25085     -3239.4863     -3256.0257      16.539369      9416.5465      10112.159    
     30700   310.60249     -3239.0974     -3257.0438      17.946389      8755.1983      10112.159    
     30800   312.61251     -3239.6191     -3257.6816      18.062527      8706.6782      10112.159    
     30900   271.47673     -3241.1566     -3256.8424      15.685731      8825.2142      10112.159    
     31000   297.5602      -3241.153      -3258.3458      17.192815      8616.1789      10112.159    
     31100   296.13605     -3240.6788     -3257.7893      17.110529      8347.4155      10112.159    
     31200   310.76302     -3239.5828     -3257.5385      17.955665      8778.5554      10112.159    
     31300   288.99675     -3239.6018     -3256.2998      16.698025      9385.2583      10112.159    
     31400   293.54298     -3239.8823     -3256.843       16.960704      9075.399       10112.159    
     31500   300.78835     -3240.7844     -3258.1638      17.379336      8363.4757      10112.159    
     31600   280.60191     -3241.8718     -3258.0848      16.212977      8536.956       10112.159    
     31700   294.27261     -3240.9252     -3257.928       17.002861      8668.1707      10112.159    
     31800   307.67337     -3239.9196     -3257.6967      17.777147      8700.26        10112.159    
     31900   294.64383     -3239.58       -3256.6043      17.02431       9276.7696      10112.159    
     32000   294.43381     -3239.539      -3256.5512      17.012175      9174.9368      10112.159    
     32100   299.91972     -3239.7089     -3257.038       17.329147      9094.9305      10112.159    
     32200   294.91815     -3240.1202     -3257.1604      17.04016       8936.1025      10112.159    
     32300   287.75656     -3241.0437     -3257.67        16.626368      8462.5562      10112.159    
     32400   293.59175     -3240.9119     -3257.8754      16.963521      8745.978       10112.159    
     32500   316.89853     -3239.7544     -3258.0646      18.31017       8659.8614      10112.159    
     32600   303.26665     -3239.1114     -3256.6339      17.52253       9206.835       10112.159    
     32700   302.73533     -3239.0775     -3256.5694      17.491831      9064.2827      10112.159    
     32800   290.31977     -3240.4874     -3257.2618      16.774469      8975.4446      10112.159    
     32900   290.10783     -3241.7201     -3258.4823      16.762223      8541.2793      10112.159    
     33000   295.49297     -3241.179      -3258.2524      17.073372      8490.1583      10112.159    
     33100   283.12033     -3240.6583     -3257.0168      16.35849       8689.4262      10112.159    
     33200   305.19884     -3239.8679     -3257.5021      17.634171      9039.6381      10112.159    
     33300   298.38077     -3239.6149     -3256.8551      17.240227      9177.0085      10112.159    
     33400   310.1163      -3239.3661     -3257.2844      17.918298      8853.2791      10112.159    
     33500   318.27659     -3238.7372     -3257.127       18.389794      8620.2042      10112.159    
     33600   304.12389     -3238.6934     -3256.2655      17.572061      9365.6117      10112.159    
     33700   302.19917     -3239.6405     -3257.1014      17.460852      8963.8656      10112.159    
     33800   277.98748     -3240.9273     -3256.9892      16.061918      8784.3074      10112.159    
     33900   303.60413     -3240.8445     -3258.3865      17.54203       8494.0248      10112.159    
     34000   298.31724     -3240.2872     -3257.5237      17.236557      8904.7967      10112.159    
     34100   297.83496     -3238.5633     -3255.772       17.208691      9463.4931      10112.159    
     34200   315.44156     -3238.6202     -3256.8462      18.225987      9303.0833      10112.159    
     34300   308.81488     -3239.2402     -3257.0833      17.843103      8827.1903      10112.159    
     34400   302.27553     -3240.0862     -3257.5515      17.465264      8757.4867      10112.159    
     34500   286.59196     -3240.9679     -3257.527       16.559079      8616.0874      10112.159    
     34600   294.04884     -3240.8648     -3257.8547      16.989932      8729.9675      10112.159    
     34700   304.76722     -3239.1607     -3256.77        17.609232      8407.6722      10112.159    
     34800   327.2086      -3237.7735     -3256.6794      18.905879      9122.7846      10112.159    
     34900   282.82427     -3238.6555     -3254.9968      16.341384      9159.9034      10112.159    
     35000   319.81137     -3239.5287     -3258.0071      18.478472      9002.2292      10112.159    
     35100   298.31905     -3240.4406     -3257.6773      17.236661      8670.4809      10112.159    
     35200   292.48383     -3240.3393     -3257.2389      16.899507      8664.6771      10112.159    
     35300   303.21598     -3239.7218     -3257.2414      17.519602      8900.0302      10112.159    
     35400   315.18906     -3238.5173     -3256.7287      18.211398      9144.6682      10112.159    
     35500   317.40186     -3237.4791     -3255.8183      18.339253      9412.451       10112.159    
     35600   297.22636     -3238.7289     -3255.9024      17.173526      8915.1899      10112.159    
     35700   314.45429     -3239.9534     -3258.1223      18.168944      8619.2208      10112.159    
     35800   301.60135     -3240.3238     -3257.7502      17.42631       8591.3626      10112.159    
     35900   294.45704     -3240.2424     -3257.2559      17.013517      8918.3158      10112.159    
     36000   294.65273     -3239.8749     -3256.8997      17.024824      9012.5913      10112.159    
     36100   322.21924     -3238.8107     -3257.4283      18.617597      8983.7156      10112.159    
     36200   296.70494     -3238.5106     -3255.654       17.143399      9101.2772      10112.159    
     36300   326.31446     -3238.5876     -3257.4418      18.854216      9047.7994      10112.159    
     36400   283.21191     -3240.3812     -3256.745       16.363782      8823.6347      10112.159    
     36500   293.62557     -3240.7563     -3257.7218      16.965476      8783.9411      10112.159    
     36600   297.63757     -3240.7368     -3257.9341      17.197286      8545.4843      10112.159    
     36700   320.61734     -3239.5336     -3258.0587      18.525041      8715.8214      10112.159    
     36800   293.96048     -3238.5917     -3255.5765      16.984826      9146.0346      10112.159    
     36900   327.56902     -3237.8463     -3256.773       18.926704      9343.3931      10112.159    
     37000   290.11864     -3239.5661     -3256.3289      16.762847      8812.207       10112.159    
     37100   299.38622     -3240.5471     -3257.8454      17.298321      8679.8808      10112.159    
     37200   283.7704      -3240.6986     -3257.0946      16.396051      8569.7017      10112.159    
     37300   316.59439     -3239.9063     -3258.1989      18.292597      8361.8633      10112.159    
     37400   299.46891     -3239.5141     -3256.8172      17.3031        8837.7114      10112.159    
     37500   303.2882      -3238.4386     -3255.9624      17.523775      9365.7922      10112.159    
     37600   328.04682     -3237.3681     -3256.3224      18.954311      9448.8014      10112.159    
     37700   307.45467     -3238.2879     -3256.0524      17.764511      8853.4839      10112.159    
     37800   299.94225     -3239.9326     -3257.263       17.330449      8909.9187      10112.159    
     37900   292.52251     -3240.7045     -3257.6062      16.901741      8690.1711      10112.159    
     38000   298.22685     -3240.5705     -3257.8018      17.231334      8320.7865      10112.159    
     38100   309.82586     -3239.4951     -3257.3966      17.901517      8886.4568      10112.159    
     38200   287.3918      -3238.8945     -3255.4998      16.605293      9290.8002      10112.159    
     38300   326.18203     -3237.238      -3256.0846      18.846564      9366.071       10112.159    
     38400   306.13498     -3238.1241     -3255.8123      17.68826       9099.4689      10112.159    
     38500   318.22924     -3239.5204     -3257.9074      18.387058      8850.7043      10112.159    
     38600   289.39714     -3240.0964     -3256.8176      16.72116       8695.476       10112.159    
     38700   291.47213     -3240.1817     -3257.0228      16.841051      8883.6503      10112.159    
     38800   292.99041     -3240.3464     -3257.2752      16.928777      8650.3698      10112.159    
     38900   302.9977      -3240.0653     -3257.5723      17.50699       8884.2035      10112.159    
     39000   308.15366     -3239.3461     -3257.151       17.804898      8701.6486      10112.159    
     39100   310.3093      -3238.45       -3256.3795      17.929449      9334.9213      10112.159    
     39200   304.03764     -3238.2959     -3255.863       17.567077      9761.4283      10112.159    
     39300   287.34341     -3240.244      -3256.8465      16.602497      8865.9574      10112.159    
     39400   306.93264     -3240.5601     -3258.2944      17.734348      8550.7662      10112.159    
     39500   304.6064      -3240.3478     -3257.9478      17.59994       8555.6603      10112.159    
     39600   283.7991      -3239.8655     -3256.2632      16.397709      9045.1327      10112.159    
     39700   315.6985      -3238.3464     -3256.5873      18.240833      8944.3046      10112.159    
     39800   306.75022     -3238.2471     -3255.971       17.723808      8860.1237      10112.159    
     39900   310.94478     -3239.2576     -3257.2238      17.966167      9185.0877      10112.159    
     40000   310.21393     -3239.7888     -3257.7127      17.923939      8771.1298      10112.159    
     40100   298.16387     -3240.1529     -3257.3806      17.227695      8668.5314      10112.159    
     40200   291.13155     -3240.5371     -3257.3585      16.821373      8767.07        10112.159    
     40300   305.77454     -3240.3795     -3258.0469      17.667434      8573.4014      10112.159    
     40400   286.81514     -3239.3688     -3255.9408      16.571973      8866.2709      10112.159    
     40500   316.08331     -3238.2593     -3256.5224      18.263067      9130.2105      10112.159    
     40600   314.78961     -3238.9715     -3257.1598      18.188319      8923.2424      10112.159    
     40700   309.93411     -3240.1039     -3258.0117      17.907771      8301.6673      10112.159    
     40800   286.83609     -3240.5028     -3257.0759      16.573184      8722.0584      10112.159    
     40900   287.60999     -3240.3064     -3256.9243      16.617899      9010.4537      10112.159    
     41000   313.74836     -3239.7545     -3257.8827      18.128156      8665.6259      10112.159    
     41100   299.77812     -3239.5395     -3256.8605      17.320966      8600.8231      10112.159    
     41200   310.09762     -3237.8997     -3255.8169      17.917219      9629.164       10112.159    
     41300   311.36095     -3237.4887     -3255.4789      17.990213      9269.7372      10112.159    
     41400   317.42548     -3238.9484     -3257.289       18.340617      8816.925       10112.159    
     41500   297.37664     -3239.8626     -3257.0448      17.182209      8983.971       10112.159    
     41600   298.71594     -3240.0978     -3257.3574      17.259593      8614.09        10112.159    
     41700   284.28595     -3240.5996     -3257.0255      16.425839      8730.1549      10112.159    
     41800   286.63567     -3240.6802     -3257.2418      16.561604      8633.5917      10112.159    
     41900   310.13218     -3239.4533     -3257.3725      17.919215      8913.1343      10112.159    
     42000   314.34447     -3238.3974     -3256.56        18.162598      9239.0395      10112.159    
     42100   310.40891     -3238.5415     -3256.4767      17.935205      9030.0147      10112.159    
     42200   300.30541     -3240.1333     -3257.4848      17.351432      8501.5353      10112.159    
     42300   291.9236      -3240.581      -3257.4482      16.867137      8740.6462      10112.159    
     42400   294.27028     -3240.1291     -3257.1318      17.002726      8637.8755      10112.159    
     42500   305.07994     -3239.3883     -3257.0156      17.6273        9249.9023      10112.159    
     42600   318.09754     -3238.9818     -3257.3612      18.379449      8574.1842      10112.159    
     42700   289.68656     -3239.6652     -3256.403       16.737882      9173.8967      10112.159    
     42800   297.87243     -3240.707      -3257.9179      17.210856      8332.7907      10112.159    
     42900   295.7182      -3241.3325     -3258.4189      17.086386      8297.6287      10112.159    
     43000   279.36114     -3241.1282     -3257.2695      16.141287      8655.7905      10112.159    
     43100   302.4272      -3239.224      -3256.698       17.474027      9458.9077      10112.159    
     43200   309.70098     -3238.9641     -3256.8584      17.894301      8966.3874      10112.159    
     43300   298.01826     -3239.4585     -3256.6778      17.219282      8880.1428      10112.159    
     43400   306.14913     -3239.8404     -3257.5294      17.689077      8935.127       10112.159    
     43500   277.37978     -3241.4009     -3257.4277      16.026806      8634.1173      10112.159    
     43600   289.59156     -3241.5563     -3258.2886      16.732393      8577.6562      10112.159    
     43700   310.58348     -3240.3895     -3258.3348      17.945292      8537.3663      10112.159    
     43800   306.08978     -3239.4923     -3257.178       17.685649      8892.7298      10112.159    
     43900   294.99233     -3239.4579     -3256.5023      17.044446      9162.6744      10112.159    
     44000   300.53551     -3239.2293     -3256.5941      17.364727      8871.6818      10112.159    
     44100   307.23815     -3239.0187     -3256.7707      17.752         8897.5401      10112.159    
     44200   295.88111     -3240.16       -3257.2558      17.095799      8676.5798      10112.159    
     44300   287.66236     -3241.3106     -3257.9315      16.620925      8477.9033      10112.159    
     44400   292.72084     -3241.166      -3258.0792      16.913201      8498.4395      10112.159    
     44500   299.98788     -3239.7952     -3257.1282      17.333085      8810.1309      10112.159    
     44600   304.56813     -3238.8258     -3256.4236      17.597729      9315.8847      10112.159    
     44700   300.83088     -3239.1412     -3256.523       17.381793      8788.3072      10112.159    
     44800   305.75929     -3239.7862     -3257.4528      17.666553      8535.862       10112.159    
     44900   288.01448     -3240.7811     -3257.4223      16.641271      8440.7485      10112.159    
     45000   286.2685      -3241.8071     -3258.3475      16.540389      8374.6267      10112.159    
     45100   265.60534     -3242.8485     -3258.195       15.346487      7923.4078      10112.159    
     45200   290.80023     -3241.3537     -3258.1559      16.802229      8559.4483      10112.159    
     45300   301.91977     -3240.2899     -3257.7346      17.444708      8408.8985      10112.159    
     45400   322.94326     -3239.4107     -3258.0702      18.659431      8386.346       10112.159    
     45500   287.85092     -3239.806      -3256.4378      16.631821      9103.9315      10112.159    
     45600   298.1199      -3239.897      -3257.1222      17.225155      8898.342       10112.159    
     45700   307.46905     -3239.6417     -3257.4071      17.765342      8631.6333      10112.159    
     45800   305.66295     -3239.8939     -3257.5549      17.660987      8379.0143      10112.159    
     45900   304.49876     -3240.3108     -3257.9045      17.593721      8399.6103      10112.159    
     46000   298.21585     -3239.9568     -3257.1875      17.230698      8875.023       10112.159    
     46100   278.57026     -3239.3066     -3255.4022      16.09559       9191.4971      10112.159    
     46200   323.50847     -3237.877      -3256.5691      18.692088      9313.091       10112.159    
     46300   315.60046     -3238.6456     -3256.8808      18.235169      9015.5384      10112.159    
     46400   300.65056     -3239.6589     -3257.0303      17.371374      9040.6193      10112.159    
     46500   296.60469     -3240.2767     -3257.4143      17.137607      8822.0186      10112.159    
     46600   289.35881     -3240.4255     -3257.1444      16.718945      8611.9633      10112.159    
     46700   299.87699     -3239.244      -3256.5707      17.326678      9028.617       10112.159    
     46800   305.9915      -3238.4965     -3256.1765      17.67997       9100.1871      10112.159    
     46900   306.1326      -3238.751      -3256.4392      17.688122      9082.2028      10112.159    
     47000   305.26729     -3239.3975     -3257.0357      17.638126      8595.2686      10112.159    
     47100   297.54601     -3240.0861     -3257.2781      17.191995      9171.4486      10112.159    
     47200   290.35168     -3240.5117     -3257.288       16.776313      8388.2829      10112.159    
     47300   294.11703     -3240.5299     -3257.5238      16.993872      9036.3297      10112.159    
     47400   291.28757     -3239.5982     -3256.4286      16.830387      9012.9138      10112.159    
     47500   315.26634     -3238.4912     -3256.7071      18.215864      9225.6158      10112.159    
     47600   301.6228      -3239.2303     -3256.6578      17.42755       9068.8979      10112.159    
     47700   298.54741     -3240.3176     -3257.5675      17.249856      8621.7857      10112.159    
     47800   290.97754     -3240.8033     -3257.6157      16.812474      8579.8765      10112.159    
     47900   300.0608      -3240.4968     -3257.8341      17.337299      8654.0519      10112.159    
     48000   293.8541      -3240.0686     -3257.0472      16.97868       8610.2155      10112.159    
     48100   302.65626     -3239.4572     -3256.9444      17.487262      9251.8843      10112.159    
     48200   299.61498     -3239.5428     -3256.8544      17.311539      8969.5161      10112.159    
     48300   291.81901     -3240.9802     -3257.8413      16.861093      8549.2778      10112.159    
     48400   290.51648     -3241.8876     -3258.6734      16.785835      8219.5697      10112.159    
     48500   279.67511     -3241.2752     -3257.4346      16.159428      8673.3687      10112.159    
     48600   293.87155     -3239.9548     -3256.9345      16.979688      8616.6928      10112.159    
     48700   308.34017     -3239.7658     -3257.5815      17.815674      8858.4743      10112.159    
     48800   309.50632     -3239.7633     -3257.6464      17.883054      8756.1248      10112.159    
     48900   299.00842     -3239.7184     -3256.9949      17.276492      9011.0533      10112.159    
     49000   307.44256     -3240.1467     -3257.9105      17.763811      8601.4561      10112.159    
     49100   290.42938     -3240.961      -3257.7418      16.780802      8698.322       10112.159    
     49200   292.00971     -3240.4605     -3257.3326      16.872112      8937.9345      10112.159    
     49300   298.25326     -3239.0645     -3256.2974      17.23286       8938.9315      10112.159    
     49400   315.82985     -3238.5571     -3256.8055      18.248423      8876.6549      10112.159    
     49500   300.49948     -3239.1642     -3256.5269      17.362645      9098.3619      10112.159    
     49600   299.87228     -3240.0195     -3257.3459      17.326406      8600.0732      10112.159    
     49700   299.4249      -3240.1533     -3257.4538      17.300557      8740.142       10112.159    
     49800   292.81193     -3239.8944     -3256.8129      16.918464      8990.5623      10112.159    
     49900   298.21795     -3239.2429     -3256.4737      17.23082       8843.3025      10112.159    
     50000   302.71711     -3239.1064     -3256.5972      17.490778      9434.9844      10112.159    
     50100   309.81176     -3239.9937     -3257.8944      17.900702      8510.7012      10112.159    
     50200   278.05844     -3241.4586     -3257.5246      16.066018      8628.3207      10112.159    
     50300   288.80657     -3241.128      -3257.815       16.687037      8634.8675      10112.159    
     50400   298.23177     -3240.2755     -3257.5071      17.231618      8854.7967      10112.159    
     50500   296.97144     -3239.5301     -3256.6889      17.158798      8826.1526      10112.159    
     50600   309.81145     -3239.4742     -3257.3749      17.900684      9006.7114      10112.159    
     50700   291.35813     -3240.0918     -3256.9262      16.834465      8828.8105      10112.159    
     50800   294.57165     -3240.4606     -3257.4808      17.020139      8684.5442      10112.159    
     50900   301.73882     -3240.6818     -3258.1161      17.434253      8281.0226      10112.159    
     51000   298.09383     -3240.1034     -3257.3271      17.223648      8980.3113      10112.159    
     51100   303.24344     -3239.1389     -3256.6601      17.521189      8854.2239      10112.159    
     51200   311.25484     -3238.3931     -3256.3771      17.984082      9076.1579      10112.159    
     51300   303.93404     -3238.6462     -3256.2073      17.561092      9117.2322      10112.159    
     51400   299.82385     -3240.4668     -3257.7904      17.323608      8746.29        10112.159    
     51500   289.13019     -3240.9076     -3257.6133      16.705736      8734.8099      10112.159    
     51600   304.56732     -3240.2767     -3257.8744      17.597682      8750.9001      10112.159    
     51700   306.40471     -3239.4937     -3257.1976      17.703845      9150.4556      10112.159    
     51800   315.37569     -3238.3612     -3256.5834      18.222182      9076.2334      10112.159    
     51900   314.38996     -3237.0081     -3255.1734      18.165227      9360.6934      10112.159    
     52000   323.42164     -3237.2539     -3255.9409      18.687071      9347.4831      10112.159    
     52100   303.20729     -3239.5572     -3257.0763      17.5191        8709.91        10112.159    
     52200   298.86758     -3240.1396     -3257.408       17.268355      8948.7356      10112.159    
     52300   290.16482     -3240.5964     -3257.362       16.765516      9095.1774      10112.159    
     52400   299.92768     -3240.6102     -3257.9398      17.329607      8615.1438      10112.159    
     52500   310.11535     -3239.8795     -3257.7977      17.918243      8600.4721      10112.159    
     52600   295.48814     -3238.6153     -3255.6884      17.073093      9580.1905      10112.159    
     52700   328.58732     -3238.0837     -3257.0693      18.98554       9369.6977      10112.159    
     52800   299.42719     -3239.0237     -3256.3244      17.300689      9063.9743      10112.159    
     52900   310.42726     -3239.4937     -3257.4299      17.936265      8898.9529      10112.159    
     53000   279.23471     -3240.6835     -3256.8175      16.133982      8879.8789      10112.159    
     53100   297.52599     -3240.5389     -3257.7298      17.190839      8570.7865      10112.159    
     53200   296.39781     -3240.0455     -3257.1712      17.125653      8859.2197      10112.159    
     53300   300.06875     -3239.6128     -3256.9505      17.337758      9174.2631      10112.159    
     53400   292.17122     -3239.771      -3256.6524      16.881444      9128.003       10112.159    
     53500   301.406       -3239.808      -3257.223       17.415023      8679.8438      10112.159    
     53600   316.92123     -3239.8481     -3258.1596      18.311482      8900.5927      10112.159    
     53700   289.48271     -3240.2915     -3257.0176      16.726104      8975.8127      10112.159    
     53800   301.63769     -3239.4567     -3256.8851      17.42841       8921.3252      10112.159    
     53900   315.23387     -3238.0612     -3256.2752      18.213988      9428.0065      10112.159    
     54000   311.48614     -3238.4651     -3256.4625      17.997446      8955.6737      10112.159    
     54100   300.24582     -3239.9275     -3257.2755      17.347989      8863.121       10112.159    
     54200   297.32696     -3240.5913     -3257.7707      17.179339      8852.8651      10112.159    
     54300   300.99921     -3240.3814     -3257.7729      17.391519      8950.9933      10112.159    
     54400   300.82541     -3239.5882     -3256.9697      17.381477      8965.9127      10112.159    
     54500   328.44848     -3237.673      -3256.6505      18.977518      9314.0304      10112.159    
     54600   309.10038     -3237.9388     -3255.7984      17.859599      9060.4002      10112.159    
     54700   310.45857     -3238.6367     -3256.5748      17.938074      9233.8594      10112.159    
     54800   316.37836     -3239.2983     -3257.5784      18.280116      9050.8389      10112.159    
     54900   286.79294     -3240.2529     -3256.8235      16.570691      8858.4872      10112.159    
     55000   291.66903     -3240.5221     -3257.3746      16.852428      8796.0504      10112.159    
     55100   296.87748     -3240.295      -3257.4484      17.153369      8732.7462      10112.159    
     55200   313.15194     -3238.573      -3256.6666      18.093695      9052.6262      10112.159    
     55300   315.61705     -3237.8352     -3256.0713      18.236127      9175.8448      10112.159    
     55400   306.37618     -3238.6266     -3256.3288      17.702196      9217.6783      10112.159    
     55500   293.26593     -3239.9191     -3256.8638      16.944696      8999.6815      10112.159    
     55600   305.84487     -3239.9099     -3257.5814      17.671498      9181.6782      10112.159    
     55700   296.01738     -3240.2666     -3257.3703      17.103672      8883.7824      10112.159    
     55800   302.87687     -3240.3822     -3257.8822      17.500009      8972.8505      10112.159    
     55900   293.10931     -3239.6423     -3256.578       16.935647      9104.5596      10112.159    
     56000   319.1223      -3238.3264     -3256.765       18.438658      8936.9487      10112.159    
     56100   300.15566     -3238.9894     -3256.3322      17.34278       8915.8408      10112.159    
     56200   297.42281     -3240.0683     -3257.2532      17.184877      8808.6251      10112.159    
     56300   280.76324     -3240.691      -3256.9133      16.222299      8720.1715      10112.159    
     56400   298.15541     -3240.4071     -3257.6343      17.227206      8592.8852      10112.159    
     56500   298.88773     -3240.2829     -3257.5524      17.269519      8607.6353      10112.159    
     56600   307.37385     -3239.9486     -3257.7084      17.759841      8907.7099      10112.159    
     56700   314.22458     -3238.9473     -3257.1029      18.155672      8778.7098      10112.159    
     56800   320.04207     -3237.9579     -3256.4497      18.491802      9467.988       10112.159    
     56900   291.12695     -3238.8657     -3255.6868      16.821107      9629.6682      10112.159    
     57000   296.64349     -3240.7995     -3257.9393      17.139848      8741.4654      10112.159    
     57100   304.10599     -3240.6167     -3258.1877      17.571027      8396.7548      10112.159    
     57200   300.00249     -3240.0213     -3257.3552      17.333929      8812.9838      10112.159    
     57300   290.85699     -3239.3846     -3256.1901      16.805509      9170.3678      10112.159    
     57400   322.08833     -3238.3172     -3256.9272      18.610033      9168.5266      10112.159    
     57500   305.93379     -3238.9858     -3256.6624      17.676636      9251.8335      10112.159    
     57600   300.93478     -3240.6809     -3258.0687      17.387796      8569.8627      10112.159    
     57700   285.28794     -3240.8861     -3257.3698      16.483733      8911.3655      10112.159    
     57800   298.95701     -3240.0902     -3257.3637      17.273522      8866.9279      10112.159    
     57900   290.76024     -3239.5039     -3256.3038      16.799919      9065.2886      10112.159    
     58000   325.90529     -3238.2598     -3257.0904      18.830574      9125.8772      10112.159    
     58100   328.44073     -3237.1459     -3256.1229      18.97707       9235.4526      10112.159    
     58200   289.68159     -3238.3033     -3255.0409      16.737595      9281.5785      10112.159    
     58300   319.47644     -3239.5641     -3258.0232      18.45912       8859.9717      10112.159    
     58400   298.41181     -3240.7063     -3257.9483      17.242021      8555.0521      10112.159    
     58500   297.95505     -3240.541      -3257.7566      17.21563       8436.0145      10112.159    
     58600   287.72142     -3239.9084     -3256.5328      16.624338      9030.1286      10112.159    
     58700   317.86448     -3238.5583     -3256.9242      18.365982      9024.5546      10112.159    
     58800   322.18001     -3238.3136     -3256.9289      18.615331      8832.6825      10112.159    
     58900   282.42619     -3240.4705     -3256.7889      16.318383      8759.3817      10112.159    
     59000   296.24466     -3240.6354     -3257.7522      17.116805      8707.8205      10112.159    
     59100   304.35807     -3240.5005     -3258.0861      17.585591      8328.5737      10112.159    
     59200   291.70988     -3240.1495     -3257.0043      16.854788      8751.0116      10112.159    
     59300   309.99037     -3238.7612     -3256.6722      17.911022      9215.5056      10112.159    
     59400   309.77242     -3238.712      -3256.6104      17.898429      8981.1142      10112.159    
     59500   308.24979     -3239.7452     -3257.5557      17.810453      8642.873       10112.159    
     59600   287.77651     -3240.9358     -3257.5633      16.627521      8512.2968      10112.159    
     59700   298.73896     -3240.8299     -3258.0908      17.260923      8694.1683      10112.159    
     59800   288.97074     -3240.4871     -3257.1836      16.696523      8682.1681      10112.159    
     59900   305.9306      -3239.3587     -3257.0351      17.676451      8909.7801      10112.159    
     60000   312.75091     -3238.7058     -3256.7763      18.070524      9071.7846      10112.159    
     60100   300.78281     -3239.2505     -3256.6296      17.379015      8969.5557      10112.159    
     60200   286.63787     -3241.1525     -3257.7142      16.561731      8606.644       10112.159    
     60300   284.5827      -3241.2423     -3257.6853      16.442985      8484.9803      10112.159    
     60400   304.86037     -3240.176      -3257.7906      17.614614      8489.7808      10112.159    
     60500   311.79039     -3239.542      -3257.557       18.015026      8862.3217      10112.159    
     60600   289.40278     -3239.7157     -3256.4372      16.721485      9213.8921      10112.159    
     60700   298.52663     -3239.667      -3256.9157      17.248655      8723.6173      10112.159    
     60800   307.4328      -3239.7813     -3257.5446      17.763247      8724.1167      10112.159    
     60900   300.73874     -3240.3187     -3257.6952      17.376469      8727.3853      10112.159    
     61000   281.11048     -3240.8394     -3257.0818      16.242362      8858.3062      10112.159    
     61100   312.16102     -3239.9159     -3257.9523      18.03644       9001.7645      10112.159    
     61200   292.06038     -3239.356      -3256.231       16.87504       8934.1505      10112.159    
     61300   339.24054     -3237.6675     -3257.2686      19.601076      9482.6551      10112.159    
     61400   297.53414     -3238.5298     -3255.7212      17.19131       9331.2586      10112.159    
     61500   319.16932     -3239.1466     -3257.588       18.441375      8988.0931      10112.159    
     61600   301.44003     -3239.9401     -3257.3571      17.416989      8759.7313      10112.159    
     61700   299.79928     -3240.1759     -3257.4981      17.322188      8915.1341      10112.159    
     61800   301.9121      -3240.0974     -3257.5417      17.444265      9115.8509      10112.159    
     61900   311.52049     -3239.2913     -3257.2907      17.999431      8888.6104      10112.159    
     62000   312.26632     -3238.5789     -3256.6214      18.042524      8931.6407      10112.159    
     62100   308.68133     -3239.0145     -3256.8499      17.835387      9206.884       10112.159    
     62200   286.41728     -3240.4663     -3257.0153      16.548986      8991.3816      10112.159    
     62300   296.35118     -3240.6621     -3257.785       17.122959      8732.3318      10112.159    
     62400   309.54077     -3240.0367     -3257.9217      17.885044      9058.8002      10112.159    
     62500   282.06621     -3239.6012     -3255.8988      16.297584      9265.8612      10112.159    
     62600   332.67        -3237.5884     -3256.8099      19.221434      9151.4669      10112.159    
     62700   308.87543     -3237.2651     -3255.1117      17.846601      9737.886       10112.159    
     62800   316.3807      -3238.5184     -3256.7987      18.280251      9124.8559      10112.159    
     62900   311.16856     -3239.4954     -3257.4745      17.979097      8918.4262      10112.159    
     63000   292.787       -3240.1538     -3257.0709      16.917023      9037.8915      10112.159    
     63100   292.23117     -3240.546      -3257.4309      16.884908      8866.9575      10112.159    
     63200   300.75886     -3240.2576     -3257.6352      17.377632      9115.1294      10112.159    
     63300   304.61752     -3239.226      -3256.8266      17.600582      8986.658       10112.159    
     63400   314.94538     -3238.5703     -3256.7676      18.197319      9231.957       10112.159    
     63500   289.29536     -3238.7884     -3255.5036      16.715279      9429.9185      10112.159    
     63600   305.53032     -3239.5031     -3257.1564      17.653324      9234.777       10112.159    
     63700   288.7707      -3240.8265     -3257.5114      16.684965      8728.0805      10112.159    
     63800   303.52567     -3240.6556     -3258.1931      17.537496      8639.2198      10112.159    
     63900   293.99434     -3240.0464     -3257.0331      16.986783      8865.771       10112.159    
     64000   308.52525     -3238.3428     -3256.1692      17.826369      9489.1539      10112.159    
     64100   308.2081      -3238.0679     -3255.876       17.808044      9637.3968      10112.159    
     64200   304.48899     -3238.9862     -3256.5793      17.593156      9450.3489      10112.159    
     64300   319.7271      -3239.3588     -3257.8324      18.473603      8685.9264      10112.159    
     64400   291.59403     -3240.2195     -3257.0676      16.848095      8665.0992      10112.159    
     64500   299.04705     -3240.1199     -3257.3986      17.278725      9147.7053      10112.159    
     64600   307.86833     -3239.3935     -3257.182       17.788412      8799.1692      10112.159    
     64700   303.55288     -3238.4633     -3256.0024      17.539069      9331.3841      10112.159    
     64800   320.79652     -3237.9415     -3256.4769      18.535393      9083.7537      10112.159    
     64900   314.20548     -3238.9392     -3257.0938      18.154568      9256.9357      10112.159    
     65000   296.84593     -3240.3437     -3257.4952      17.151546      8974.0195      10112.159    
     65100   286.60523     -3240.7046     -3257.2645      16.559845      9021.3012      10112.159    
     65200   288.94734     -3240.406      -3257.1011      16.695171      9065.9332      10112.159    
     65300   311.80612     -3239.4791     -3257.495       18.015934      9124.8265      10112.159    
     65400   326.69798     -3237.7322     -3256.6086      18.876376      9111.4988      10112.159    
     65500   310.95942     -3237.2536     -3255.2206      17.967013      9818.5732      10112.159    
     65600   305.92221     -3238.3756     -3256.0516      17.675966      9614.6042      10112.159    
     65700   309.65878     -3239.0234     -3256.9152      17.891863      9436.2971      10112.159    
     65800   295.14883     -3240.2009     -3257.2544      17.053488      9214.2377      10112.159    
     65900   294.9542      -3240.7687     -3257.811       17.042243      8904.9933      10112.159    
     66000   292.02428     -3240.6818     -3257.5547      16.872954      8892.221       10112.159    
     66100   309.36259     -3239.0116     -3256.8864      17.874749      9253.5109      10112.159    
     66200   310.43229     -3238.3125     -3256.2491      17.936556      9400.1889      10112.159    
     66300   304.67721     -3239.155      -3256.759       17.604031      9271.0607      10112.159    
     66400   300.04891     -3239.9606     -3257.2972      17.336612      9073.4382      10112.159    
     66500   306.30285     -3240.2586     -3257.9566      17.697959      8898.066       10112.159    
     66600   281.33705     -3240.7271     -3256.9825      16.255454      9207.7152      10112.159    
     66700   317.79652     -3239.4353     -3257.7973      18.362056      9241.3519      10112.159    
     66800   302.64073     -3238.6059     -3256.0922      17.486365      9545.4192      10112.159    
     66900   299.3571      -3238.4735     -3255.7701      17.296639      9575.439       10112.159    
     67000   322.44269     -3238.7193     -3257.3498      18.630508      8935.2787      10112.159    
     67100   292.05058     -3240.4962     -3257.3707      16.874474      8760.275       10112.159    
     67200   286.87297     -3240.9663     -3257.5416      16.575315      9088.9552      10112.159    
     67300   293.77908     -3240.4335     -3257.4079      16.974345      9223.5043      10112.159    
     67400   312.57014     -3239.0736     -3257.1336      18.060079      9243.0725      10112.159    
     67500   298.15614     -3238.8703     -3256.0975      17.227249      9573.9133      10112.159    
     67600   302.8014      -3239.3489     -3256.8446      17.495648      9437.3452      10112.159    
     67700   295.45912     -3239.607      -3256.6784      17.071417      9078.1922      10112.159    
     67800   305.04185     -3239.6221     -3257.2472      17.6251        9045.5681      10112.159    
     67900   288.52212     -3240.4365     -3257.1071      16.670602      8985.1359      10112.159    
     68000   286.80506     -3241.2267     -3257.7981      16.571391      8981.4966      10112.159    
     68100   280.26235     -3241.6589     -3257.8523      16.193358      8769.6481      10112.159    
     68200   308.0357      -3240.9167     -3258.7148      17.798083      8716.4983      10112.159    
     68300   307.0509      -3239.6405     -3257.3817      17.741182      9026.2178      10112.159    
     68400   294.48769     -3239.1639     -3256.1791      17.015288      9415.4492      10112.159    
     68500   305.24555     -3239.2431     -3256.88        17.63687       9173.0689      10112.159    
     68600   303.86594     -3240.112      -3257.6691      17.557157      8680.5716      10112.159    
     68700   285.59751     -3241.9396     -3258.4412      16.50162       8655.8563      10112.159    
     68800   275.02225     -3242.5655     -3258.4561      15.890589      8584.5166      10112.159    
     68900   271.56045     -3241.4346     -3257.1252      15.690569      8942.1089      10112.159    
     69000   298.68445     -3240.4077     -3257.6655      17.257774      8797.4709      10112.159    
     69100   309.69282     -3239.4739     -3257.3678      17.893829      9214.1177      10112.159    
     69200   304.83927     -3238.9714     -3256.5848      17.613395      9393.8008      10112.159    
     69300   297.79906     -3239.2874     -3256.4941      17.206617      9265.8277      10112.159    
     69400   292.95328     -3240.552      -3257.4786      16.926631      9005.3527      10112.159    
     69500   292.07738     -3241.6592     -3258.5352      16.876022      8511.8272      10112.159    
     69600   285.05901     -3241.4194     -3257.8899      16.470506      8868.6942      10112.159    
     69700   304.8986      -3240.0378     -3257.6547      17.616823      8866.2675      10112.159    
     69800   295.18068     -3239.5998     -3256.6551      17.055328      8991.8186      10112.159    
     69900   309.0845      -3239.1074     -3256.9661      17.858681      9211.2612      10112.159    
     70000   286.60059     -3239.8271     -3256.3867      16.559577      9462.2256      10112.159    
     70100   298.95636     -3240.4677     -3257.7412      17.273484      8820.1603      10112.159    
     70200   296.4846      -3241.4239     -3258.5546      17.130668      8254.4011      10112.159    
     70300   292.39763     -3242.1917     -3259.0863      16.894526      8476.9056      10112.159    
     70400   280.08316     -3241.0972     -3257.2802      16.183005      9172.1126      10112.159    
     70500   296.41158     -3239.6782     -3256.8046      17.126449      9346.3242      10112.159    
     70600   293.96779     -3239.326      -3256.3112      16.985249      9111.2199      10112.159    
     70700   297.83307     -3239.1177     -3256.3262      17.208582      9297.8346      10112.159    
     70800   317.02603     -3239.2997     -3257.6173      18.317537      9389.6487      10112.159    
     70900   271.88267     -3240.9773     -3256.6865      15.709186      9108.2868      10112.159    
     71000   308.95063     -3240.6796     -3258.5306      17.850947      8743.6034      10112.159    
     71100   288.52898     -3240.3409     -3257.0119      16.670998      9196.9758      10112.159    
     71200   308.33278     -3238.9483     -3256.7636      17.815248      9279.3797      10112.159    
     71300   314.75901     -3237.847      -3256.0335      18.186551      9467.6688      10112.159    
     71400   336.10491     -3236.6269     -3256.0468      19.419901      9796.6829      10112.159    
     71500   313.12993     -3237.5738     -3255.6662      18.092423      9570.6568      10112.159    
     71600   292.10593     -3239.4081     -3256.2857      16.877671      9146.317       10112.159    
     71700   312.98612     -3239.744      -3257.8281      18.084114      8913.3767      10112.159    
     71800   295.98912     -3240.7323     -3257.8343      17.10204       8928.0098      10112.159    
     71900   289.3292      -3240.9213     -3257.6386      16.717234      8833.3272      10112.159    
     72000   303.18947     -3239.8426     -3257.3607      17.518071      8827.5082      10112.159    
     72100   304.6902      -3238.8289     -3256.4336      17.604782      9456.78        10112.159    
     72200   340.69898     -3237.2932     -3256.9785      19.685343      9345.7593      10112.159    
     72300   293.13089     -3238.9809     -3255.9178      16.936893      9192.3741      10112.159    
     72400   298.45735     -3240.3681     -3257.6128      17.244652      8616.2371      10112.159    
     72500   285.93561     -3240.9104     -3257.4315      16.521155      8697.8819      10112.159    
     72600   293.89737     -3240.5264     -3257.5076      16.98118       8994.1582      10112.159    
     72700   291.40257     -3239.2959     -3256.1329      16.837032      9031.9389      10112.159    
     72800   319.42903     -3238.6446     -3257.101       18.456381      9208.4066      10112.159    
     72900   301.70717     -3239.4626     -3256.895       17.432425      9045.4305      10112.159    
     73000   296.08228     -3239.9985     -3257.1059      17.107422      8984.8396      10112.159    
     73100   290.1625      -3240.2804     -3257.0458      16.765382      8967.3695      10112.159    
     73200   313.39976     -3240.1294     -3258.2374      18.108014      8906.0605      10112.159    
     73300   286.67498     -3240.5074     -3257.0712      16.563875      8941.9824      10112.159    
     73400   303.21227     -3239.7647     -3257.2841      17.519388      8709.0604      10112.159    
     73500   323.38441     -3238.5624     -3257.2474      18.68492       8939.5107      10112.159    
     73600   298.74931     -3239.1155     -3256.377       17.261521      9295.1586      10112.159    
     73700   301.66356     -3240.0838     -3257.5137      17.429904      9085.6692      10112.159    
     73800   303.6906      -3240.3338     -3257.8808      17.547026      8980.1689      10112.159    
     73900   291.71891     -3240.109      -3256.9644      16.85531       9174.4969      10112.159    
     74000   286.54357     -3239.6602     -3256.2165      16.556283      9401.3798      10112.159    
     74100   316.55744     -3238.9927     -3257.2832      18.290462      8917.4504      10112.159    
     74200   315.08714     -3238.9896     -3257.1951      18.205509      8986.1767      10112.159    
     74300   309.5524      -3239.8436     -3257.7293      17.885716      9052.0304      10112.159    
     74400   279.58679     -3241.0332     -3257.1875      16.154325      8732.5074      10112.159    
     74500   282.79104     -3240.8784     -3257.2178      16.339464      9007.8383      10112.159    
     74600   322.39475     -3239.5247     -3258.1524      18.627738      8923.366       10112.159    
     74700   305.53017     -3239.2215     -3256.8748      17.653315      8858.1941      10112.159    
     74800   305.06184     -3239.1605     -3256.7867      17.626255      9250.5149      10112.159    
     74900   275.20366     -3240.447      -3256.3481      15.901071      9323.2815      10112.159    
     75000   286.03036     -3241.8549     -3258.3815      16.526629      8526.4709      10112.159    
     75100   303.37597     -3241.2432     -3258.772       17.528847      8455.3257      10112.159    
     75200   311.96444     -3240.0998     -3258.1249      18.025082      8993.8068      10112.159    
     75300   290.54006     -3239.6816     -3256.4688      16.787197      9153.2525      10112.159    
     75400   297.54026     -3239.2631     -3256.4548      17.191663      9490.0522      10112.159    
[...]
    281800   318.28877     -3237.9519     -3256.3424      18.390498      9211.9938      10112.159    
    281900   311.85627     -3239.2393     -3257.2581      18.018832      8682.2125      10112.159    
    282000   292.10559     -3240.4477     -3257.3254      16.877652      8920.395       10112.159    
    282100   298.48827     -3240.5859     -3257.8323      17.246439      8791.966       10112.159    
    282200   290.7519      -3240.1054     -3256.9048      16.799437      8984.8248      10112.159    
    282300   312.50369     -3239.0907     -3257.147       18.05624       9117.3288      10112.159    
    282400   287.32445     -3239.3591     -3255.9605      16.601401      9205.3789      10112.159    
    282500   312.07399     -3239.3893     -3257.4208      18.031412      9126.3336      10112.159    
    282600   298.97069     -3240.0962     -3257.3705      17.274313      9012.4325      10112.159    
    282700   300.65761     -3239.9586     -3257.3304      17.371782      8963.7106      10112.159    
    282800   291.50659     -3240.1255     -3256.9686      16.843042      9196.5392      10112.159    
    282900   296.79576     -3240.0263     -3257.1749      17.148647      9134.0202      10112.159    
    283000   304.78318     -3238.9444     -3256.5546      17.610154      9289.2188      10112.159    
    283100   315.59195     -3238.0056     -3256.2403      18.234677      9281.8504      10112.159    
    283200   325.1334      -3238.6327     -3257.4187      18.785975      8939.4051      10112.159    
    283300   278.88766     -3240.6607     -3256.7747      16.113929      9047.7312      10112.159    
    283400   307.94957     -3240.4306     -3258.2237      17.793106      8675.6758      10112.159    
    283500   298.86957     -3240.0999     -3257.3683      17.26847       8991.6143      10112.159    
    283600   290.69216     -3239.1655     -3255.9615      16.795985      9560.8617      10112.159    
    283700   324.04749     -3238.1711     -3256.8943      18.723232      9294.34        10112.159    
    283800   303.88759     -3239.3294     -3256.8878      17.558407      9288.6956      10112.159    
    283900   306.14419     -3240.4953     -3258.184       17.688792      8877.7046      10112.159    
    284000   293.65265     -3240.6353     -3257.6024      16.96704       8641.5909      10112.159    
    284100   285.04038     -3240.0955     -3256.5649      16.469429      9080.7479      10112.159    
    284200   315.009       -3238.8708     -3257.0717      18.200995      9287.4647      10112.159    
    284300   319.92524     -3239.0251     -3257.5102      18.485052      9036.5971      10112.159    
    284400   281.78581     -3240.1724     -3256.4538      16.281382      9005.5297      10112.159    
    284500   302.77828     -3240.1687     -3257.663       17.494313      8694.4637      10112.159    
    284600   292.03078     -3240.2253     -3257.0986      16.873329      9170.9625      10112.159    
    284700   302.72407     -3239.9616     -3257.4528      17.49118       8810.8507      10112.159    
    284800   311.49387     -3239.433      -3257.4309      17.997893      8912.5654      10112.159    
    284900   296.11073     -3238.4287     -3255.5378      17.109066      9586.6626      10112.159    
    285000   320.37218     -3237.595      -3256.1059      18.510876      9487.5162      10112.159    
    285100   299.22383     -3239.2922     -3256.5812      17.288939      8499.5458      10112.159    
    285200   307.47171     -3240.0718     -3257.8372      17.765495      9027.0141      10112.159    
    285300   294.60893     -3240.5579     -3257.5802      17.022293      8733.3157      10112.159    
    285400   298.38705     -3240.101      -3257.3416      17.24059       8754.2767      10112.159    
    285500   314.30958     -3238.8503     -3257.0108      18.160583      8894.7765      10112.159    
    285600   307.24675     -3238.9174     -3256.6699      17.752497      9304.6315      10112.159    
    285700   284.91847     -3240.6063     -3257.0687      16.462385      8712.7257      10112.159    
    285800   291.10713     -3241.6608     -3258.4808      16.819962      8251.891       10112.159    
    285900   292.19794     -3241.2696     -3258.1526      16.882988      8539.621       10112.159    
    286000   299.41574     -3240.2372     -3257.5372      17.300027      8795.7946      10112.159    
    286100   298.46177     -3239.6465     -3256.8914      17.244908      8766.2615      10112.159    
    286200   309.49454     -3239.3956     -3257.278       17.882373      9392.4778      10112.159    
    286300   276.82963     -3240.0064     -3256.0014      15.995018      9416.3739      10112.159    
    286400   316.96384     -3239.5825     -3257.8965      18.313944      8480.7868      10112.159    
    286500   307.22725     -3239.1297     -3256.8811      17.751371      8937.5243      10112.159    
    286600   297.16371     -3239.3056     -3256.4755      17.169906      9030.8906      10112.159    
    286700   308.87546     -3240.1476     -3257.9942      17.846603      8663.0622      10112.159    
    286800   288.42233     -3241.1316     -3257.7964      16.664836      8611.8625      10112.159    
    286900   290.94845     -3240.5521     -3257.3629      16.810793      8825.5535      10112.159    
    287000   289.80183     -3239.1868     -3255.9313      16.744542      9503.1745      10112.159    
    287100   313.75415     -3239.2007     -3257.3292      18.12849       8998.9614      10112.159    
    287200   304.78715     -3239.9935     -3257.6039      17.610384      8667.8168      10112.159    
    287300   298.80616     -3240.4952     -3257.76        17.264806      8540.7186      10112.159    
    287400   288.3514      -3240.6692     -3257.33        16.660737      8599.1483      10112.159    
    287500   291.81886     -3239.9053     -3256.7664      16.861085      8941.3719      10112.159    
    287600   303.12189     -3238.6927     -3256.2069      17.514166      9317.4557      10112.159    
    287700   308.03729     -3238.4669     -3256.2651      17.798174      9405.7614      10112.159    
    287800   298.10977     -3239.7437     -3256.9683      17.224569      8972.351       10112.159    
    287900   297.28445     -3240.9826     -3258.1594      17.176883      8331.533       10112.159    
    288000   290.75025     -3240.7824     -3257.5817      16.799341      8690.2177      10112.159    
    288100   290.90679     -3239.9438     -3256.7522      16.808386      9142.4953      10112.159    
    288200   318.33558     -3239.1385     -3257.5317      18.393202      8986.7464      10112.159    
    288300   291.97222     -3239.4312     -3256.3011      16.869946      9158.4785      10112.159    
    288400   301.36163     -3239.6678     -3257.0803      17.41246       9133.7138      10112.159    
    288500   284.13543     -3241.7736     -3258.1907      16.417142      8153.5115      10112.159    
    288600   284.27331     -3242.0819     -3258.5071      16.425109      8505.3858      10112.159    
    288700   284.79083     -3240.824      -3257.279       16.455011      8906.7461      10112.159    
    288800   311.51799     -3239.7434     -3257.7427      17.999287      8586.6717      10112.159    
    288900   298.94599     -3239.5926     -3256.8655      17.272885      8968.0306      10112.159    
    289000   309.45226     -3239.1834     -3257.0633      17.87993       8844.5423      10112.159    
    289100   292.60968     -3239.7236     -3256.6304      16.906778      9234.8742      10112.159    
    289200   297.81771     -3240.7265     -3257.9342      17.207694      8629.9199      10112.159    
    289300   286.21171     -3241.528      -3258.0651      16.537108      8314.5659      10112.159    
    289400   302.36406     -3240.9738     -3258.4442      17.470379      8540.5819      10112.159    
    289500   295.20027     -3239.5165     -3256.5729      17.05646       9201.2903      10112.159    
    289600   291.15439     -3239.0842     -3255.9069      16.822692      9478.109       10112.159    
    289700   303.79121     -3238.886      -3256.4389      17.552839      8931.7939      10112.159    
    289800   301.01129     -3240.0293     -3257.4216      17.392217      8805.7323      10112.159    
    289900   292.1022      -3241.5551     -3258.4326      16.877456      8566.735       10112.159    
    290000   300.99958     -3240.8591     -3258.2507      17.39154       8708.1368      10112.159    
    290100   283.90645     -3240.1027     -3256.5066      16.403912      8642.9187      10112.159    
    290200   301.01792     -3239.2184     -3256.611       17.3926        9067.5443      10112.159    
    290300   326.48712     -3238.6248     -3257.489       18.864192      9072.5967      10112.159    
    290400   305.49603     -3239.7574     -3257.4087      17.651342      9109.6798      10112.159    
    290500   284.74848     -3241.3977     -3257.8503      16.452564      8786.0903      10112.159    
    290600   287.53418     -3241.1126     -3257.7262      16.613519      8685.1991      10112.159    
    290700   307.54908     -3239.9621     -3257.7321      17.769966      8735.9933      10112.159    
    290800   304.17769     -3239.323      -3256.8982      17.575169      8949.9057      10112.159    
    290900   296.55011     -3239.1297     -3256.2642      17.134453      9509.6733      10112.159    
    291000   299.31647     -3238.8526     -3256.1469      17.294291      9513.8942      10112.159    
    291100   309.0277      -3239.2956     -3257.151       17.8554        8831.2812      10112.159    
    291200   314.67039     -3240.1883     -3258.3698      18.18143       8671.7639      10112.159    
    291300   279.19573     -3241.1337     -3257.2654      16.131729      8629.2316      10112.159    
    291400   299.08242     -3240.7984     -3258.0791      17.280769      8599.0532      10112.159    
    291500   303.28883     -3239.2619     -3256.7857      17.523812      9137.0638      10112.159    
    291600   304.60038     -3238.1872     -3255.7868      17.599592      9619.8569      10112.159    
    291700   315.19803     -3238.7009     -3256.9128      18.211917      8933.0158      10112.159    
    291800   299.51084     -3240.0834     -3257.3889      17.305522      8802.0863      10112.159    
    291900   304.71633     -3240.2689     -3257.8752      17.606291      8718.5939      10112.159    
    292000   281.29792     -3240.547      -3256.8002      16.253193      8936.0168      10112.159    
    292100   304.39133     -3239.7091     -3257.2967      17.587514      8942.8026      10112.159    
    292200   330.52403     -3238.23       -3257.3275      19.097442      9133.9877      10112.159    
    292300   292.94463     -3238.6326     -3255.5587      16.926131      9340.9569      10112.159    
    292400   319.50034     -3239.0243     -3257.4848      18.460501      9052.1929      10112.159    
    292500   290.96808     -3240.3355     -3257.1475      16.811928      8713.158       10112.159    
    292600   289.9554      -3240.1738     -3256.9272      16.753415      8691.1442      10112.159    
    292700   316.49715     -3239.3465     -3257.6335      18.286979      8961.7943      10112.159    
    292800   293.31497     -3239.5596     -3256.5071      16.947529      8921.4478      10112.159    
    292900   299.8451      -3240.0476     -3257.3724      17.324836      8918.47        10112.159    
    293000   285.44933     -3241.2775     -3257.7705      16.493058      8453.7011      10112.159    
    293100   290.82204     -3241.5563     -3258.3597      16.803489      8624.5447      10112.159    
    293200   308.39484     -3240.0512     -3257.87        17.818833      8561.9494      10112.159    
    293300   294.43157     -3239.1753     -3256.1874      17.012045      9028.0851      10112.159    
    293400   311.51498     -3238.8731     -3256.8722      17.999113      9212.1153      10112.159    
    293500   298.33372     -3239.8482     -3257.0857      17.237509      9248.0704      10112.159    
    293600   299.09603     -3240.6383     -3257.9198      17.281555      8719.1546      10112.159    
    293700   294.06519     -3240.6912     -3257.6821      16.990876      8651.9039      10112.159    
    293800   290.99023     -3240.4362     -3257.2494      16.813208      8949.2109      10112.159    
    293900   308.25326     -3239.8263     -3257.6369      17.810653      8739.1384      10112.159    
    294000   300.79405     -3239.5835     -3256.9632      17.379665      8843.2555      10112.159    
    294100   286.17085     -3239.7146     -3256.2494      16.534747      9347.7303      10112.159    
    294200   291.85279     -3240.323      -3257.186       16.863045      8893.2628      10112.159    
    294300   294.10066     -3240.9551     -3257.948       16.992926      8771.7321      10112.159    
    294400   298.56661     -3240.9773     -3258.2282      17.250965      8658.5884      10112.159    
    294500   280.56213     -3239.9124     -3256.1231      16.210679      9320.8256      10112.159    
    294600   315.7842      -3238.9905     -3257.2363      18.245785      9158.8656      10112.159    
    294700   307.08283     -3239.6347     -3257.3777      17.743026      8796.2137      10112.159    
    294800   307.20165     -3240.2597     -3258.0096      17.749892      8567.3884      10112.159    
    294900   279.09307     -3241.2354     -3257.3612      16.125798      8704.6821      10112.159    
    295000   288.49374     -3241.1532     -3257.8221      16.668962      8578.9747      10112.159    
    295100   306.15173     -3239.4921     -3257.1813      17.689228      9070.57        10112.159    
    295200   307.55237     -3238.6904     -3256.4606      17.770156      9246.4599      10112.159    
    295300   307.99194     -3238.6782     -3256.4738      17.795554      9091.33        10112.159    
    295400   278.15474     -3240.5307     -3256.6023      16.071582      9234.5375      10112.159    
    295500   305.80102     -3240.5129     -3258.1819      17.668964      8628.2576      10112.159    
    295600   305.90669     -3240.2502     -3257.9253      17.67507       8954.6366      10112.159    
    295700   285.32177     -3239.853      -3256.3387      16.485688      9312.7491      10112.159    
    295800   314.3679      -3238.5894     -3256.7534      18.163952      9180.7318      10112.159    
    295900   310.5989      -3238.7046     -3256.6508      17.946182      9325.8339      10112.159    
    296000   298.56332     -3240.4871     -3257.7379      17.250775      8802.5254      10112.159    
    296100   286.60383     -3241.3234     -3257.8832      16.559764      8771.0309      10112.159    
    296200   276.45866     -3240.8562     -3256.8298      15.973584      8829.7397      10112.159    
    296300   299.9283      -3239.535      -3256.8647      17.329643      8801.3451      10112.159    
    296400   326.08484     -3239.0272     -3257.8681      18.840949      8738.7073      10112.159    
    296500   291.52114     -3239.6374     -3256.4813      16.843883      9132.7425      10112.159    
    296600   305.74385     -3239.6717     -3257.3374      17.665661      8651.4425      10112.159    
    296700   294.42615     -3240.5622     -3257.574       17.011733      8597.431       10112.159    
    296800   279.78159     -3242.1788     -3258.3444      16.16558       8610.1342      10112.159    
    296900   298.30482     -3241.5384     -3258.7742      17.235839      8239.9965      10112.159    
    297000   293.96671     -3240.6508     -3257.636       16.985187      8726.8498      10112.159    
    297100   299.72448     -3239.6842     -3257.0021      17.317866      8843.3929      10112.159    
    297200   317.40884     -3239.3175     -3257.6571      18.339656      8847.7721      10112.159    
    297300   284.62553     -3240.0971     -3256.5426      16.44546       8942.1724      10112.159    
    297400   300.07199     -3240.0763     -3257.4143      17.337945      8859.3529      10112.159    
    297500   302.38154     -3239.9369     -3257.4083      17.471389      8676.2367      10112.159    
    297600   297.17928     -3239.8813     -3257.0521      17.170806      9030.005       10112.159    
    297700   300.41303     -3239.455      -3256.8126      17.35765       9218.4238      10112.159    
    297800   291.18844     -3239.6075     -3256.4322      16.82466       9132.115       10112.159    
    297900   317.47779     -3239.5882     -3257.9318      18.343639      8832.5766      10112.159    
    298000   291.30789     -3240.3371     -3257.1686      16.831562      8760.1638      10112.159    
    298100   293.50924     -3241.0564     -3258.0152      16.958754      8877.9262      10112.159    
    298200   278.46152     -3241.4753     -3257.5646      16.089307      8513.0575      10112.159    
    298300   303.54819     -3239.9999     -3257.5387      17.538797      8780.5667      10112.159    
    298400   307.19511     -3239.0029     -3256.7524      17.749514      9138.684       10112.159    
    298500   313.90472     -3238.8373     -3256.9745      18.13719       9024.4626      10112.159    
    298600   304.10068     -3239.8085     -3257.3793      17.57072       8760.042       10112.159    
    298700   293.4631      -3240.6435     -3257.5996      16.956088      8571.6967      10112.159    
    298800   290.87453     -3240.6412     -3257.4477      16.806523      8673.2515      10112.159    
    298900   294.644       -3240.4239     -3257.4482      17.024319      8486.703       10112.159    
    299000   315.46232     -3239.3134     -3257.5406      18.227187      8508.6274      10112.159    
    299100   315.53503     -3238.9014     -3257.1328      18.231388      9032.9854      10112.159    
    299200   292.02327     -3239.5768     -3256.4497      16.872895      8752.5184      10112.159    
    299300   291.02751     -3239.9036     -3256.719       16.815362      8730.1395      10112.159    
    299400   305.73434     -3240.0402     -3257.7053      17.665111      8497.5582      10112.159    
    299500   301.02412     -3240.0749     -3257.4678      17.392958      8953.6497      10112.159    
    299600   296.79768     -3239.7055     -3256.8543      17.148758      8863.988       10112.159    
    299700   302.3726      -3238.5722     -3256.0431      17.470872      9020.6158      10112.159    
    299800   317.53576     -3237.39       -3255.737       18.346989      9673.1674      10112.159    
    299900   322.01938     -3237.8381     -3256.4442      18.606049      9041.8574      10112.159    
    300000   301.71539     -3239.986      -3257.4189      17.4329        9182.956       10112.159    
Loop time of 2352.39 on 20 procs for 300000 steps with 448 atoms

Performance: 11.019 ns/day, 2.178 hours/ns, 127.530 timesteps/s, 57.133 katom-step/s
99.9% CPU use with 20 MPI tasks x 1 OpenMP threads

MPI task timing breakdown:
Section |  min time  |  avg time  |  max time  |%varavg| %total
---------------------------------------------------------------
Pair    | 1696       | 1994.6     | 2225.8     | 418.9 | 84.79
Neigh   | 19.688     | 24.072     | 33.551     |  68.8 |  1.02
Comm    | 89.741     | 330.36     | 633.46     |1045.4 | 14.04
Output  | 0.33807    | 0.50277    | 0.56491    |   6.6 |  0.02
Modify  | 2.1215     | 2.6279     | 3.0048     |  16.9 |  0.11
Other   |            | 0.2564     |            |       |  0.01

Nlocal:           22.4 ave          25 max          17 min
Histogram: 1 1 1 2 0 1 1 2 10 1
Nghost:          496.4 ave         528 max         465 min
Histogram: 4 0 2 4 2 0 0 0 7 1
Neighs:              0 ave           0 max           0 min
Histogram: 20 0 0 0 0 0 0 0 0 0
FullNghs:       1282.9 ave        1464 max         964 min
Histogram: 1 1 1 2 1 0 3 2 8 1

Total # of neighbors = 25658
Ave neighs/atom = 57.272321
Neighbor list builds = 300000
Dangerous builds not checked
Total wall time: 0:39:12
