(written by ASE)

19 atoms
3 atom types

0.0                      30  xlo xhi
0.0                      30  ylo yhi
0.0                      30  zlo zhi

Masses

     1      12.010999996910238 # C
     2      15.998999995884349 # O
     3      1.0079999997406976 # H

Atoms # atomic

     1   2     -3.1680263499999999              1.96300466      3.0154385499999998
     2   1     -2.2171024300000002      1.8478677100000001              1.94347761
     3   1             -0.76454791      1.3993993899999999              2.11114829
     4   1    -0.73312224999999998      1.2445635399999999     0.45901193000000001
     5   2   -0.091289899999999993    0.053772630000000002              0.02773424
     6   1             -0.21177398      2.5525487299999998    -0.20350004999999999
     7   1             -1.06702881               3.6645756     0.39346273999999998
     8   1     -2.3031900200000002      2.9622540100000001     0.89789779999999997
     9   1             -2.25073071              1.50323845     0.51032200999999999
    10   3             -3.37392563      1.1468533299999999              3.58438005
    11   3    -0.13862503000000001      2.2137099400000002      2.5952400299999998
    12   3    -0.56851969000000002     0.46955003000000001      2.6691210299999999
    13   3             -0.18954314  -0.0086480499999999991    -0.96520475999999999
    14   3     0.87373244000000005      2.6263387100000002   -0.044308899999999998
    15   3             -0.36143923      2.2953143100000002     -1.2413315300000001
    16   3             -0.40297738      4.1634696599999996      1.1389791499999999
    17   3     -1.4107859599999999      4.3680299700000003    -0.37203367999999998
    18   3     -3.2804956999999999      3.3975921800000002     0.92956494000000001
    19   3     -3.0054030900000002     0.84965853999999996    0.037301800000000003
