(written by ASE)

128 atoms
1 atom types

0.0        14.2121085805106  xlo xhi
0.0        14.2121085805106  ylo yhi
0.0        14.2121085805106  zlo zhi

Masses

     1      178.48999995408445 # Hf

Atoms # atomic

     1   1              0.11348227  -0.0039737100000000001    0.049020399999999999
     2   1              1.82531227      1.7944691500000001      1.8129207300000001
     3   1   -0.026147440000000001   0.0067109600000000002      3.4663204900000002
     4   1      1.7095105900000001              1.83843289              5.25293177
     5   1             -0.11094825    0.011354049999999999      7.0670733200000004
     6   1               1.8042684              1.84651389      8.8514689299999993
     7   1   -0.043697970000000003    0.064042600000000005      10.652825269999999
     8   1              1.69047489              1.87914063      12.407267429999999
     9   1    0.090421699999999994      3.5743879399999998             -0.11285409
    10   1      1.8353360700000001               5.2905967      1.8015510400000001
    11   1   -0.047259519999999999              3.49929969      3.6353450999999999
    12   1              1.80242367      5.4392368800000002      5.2560399599999998
    13   1    0.070749300000000001      3.5212630800000002      7.1068004299999998
    14   1      1.7279209499999999              5.29190279      8.9563699200000002
    15   1   -0.086187910000000006      3.6271276600000002      10.696337059999999
    16   1              1.80555033      5.2584744900000002      12.569014019999999
    17   1             -0.04397653      7.0916062599999998 -0.00030556000000000002
    18   1      1.8444744500000001      8.9348968499999994      1.7383867500000001
    19   1    0.036415690000000001      7.1736229199999997      3.4542998900000002
    20   1      1.6979604100000001      8.6507399500000002      5.4209927899999997
    21   1   -0.030436649999999999      7.1384635799999998      7.0312488599999998
    22   1      1.6391393299999999      8.9464441800000003      8.9768879399999992
    23   1              0.15413884              7.21666571             10.65536071
    24   1      1.7134032800000001      8.8675385599999998             12.49876641
    25   1    0.067750539999999998      10.667801989999999   -0.054484959999999999
    26   1              1.83651283      12.470279659999999              1.68833739
    27   1   -0.079657450000000005      10.611904340000001              3.42957651
    28   1              1.80552333      12.289980590000001              5.33047161
    29   1    0.034069269999999999             10.68544063      7.0285855100000001
    30   1              1.79961251             12.41840404      8.9736262599999996
    31   1    0.015293650000000001             10.59629376             10.72130063
    32   1              1.62351596             12.46083003             12.54386143
    33   1      3.5579459600000001             -0.06411509              0.01220536
    34   1      5.3619215899999997              1.89066523      1.8055048499999999
    35   1      3.5206775399999999    0.047147250000000002              3.65283026
    36   1      5.2771747800000002      1.7875620699999999      5.2412451500000001
    37   1      3.5101619999999998              0.02227322      7.1068771699999997
    38   1      5.4452812899999996      1.6190803600000001      8.8798036099999997
    39   1              3.54635882              0.10746486      10.634636609999999
    40   1              5.28504971              1.76451855             12.50368664
    41   1      3.5163286399999998      3.5732367599999999    0.042927670000000001
    42   1      5.3791494999999996      5.3437400400000001              1.69761932
    43   1      3.5772602099999999              3.56502074              3.61794379
    44   1      5.3209082800000003              5.26170632      5.3771143300000004
    45   1      3.5279100900000002               3.5142224      6.9480355400000002
    46   1      5.4810702200000003      5.3319908900000001      8.8669345400000008
    47   1      3.4873529900000002      3.5818919400000002             10.56226002
    48   1      5.4964732999999999      5.4727717699999996      12.469001990000001
    49   1              3.53401561      7.0672850800000004     0.11851477000000001
    50   1      5.3775193799999998      8.8380896500000006              1.80646701
    51   1      3.6271660300000002      7.1256044699999999      3.5223986300000001
    52   1      5.3987934800000001      8.9016163499999994      5.3661525299999999
    53   1      3.6508760900000001      7.0085791200000003      7.0795060699999999
    54   1      5.2816018500000004      8.8111591199999992      8.9263766899999997
    55   1      3.5546700599999999      7.1283417199999999      10.662851910000001
    56   1      5.3135819399999997      8.9549401799999995             12.49736367
    57   1      3.5331444099999998      10.758154040000001   -0.098319370000000003
    58   1      5.2829036800000004             12.37260126      1.8127530300000001
    59   1              3.62368975              10.6214762              3.41623418
    60   1      5.4686729999999999             12.40237705      5.4053552099999997
    61   1      3.6423559299999999      10.691274699999999      7.0593376699999997
    62   1      5.3672966100000004      12.473173239999999      8.9051580099999992
    63   1      3.5571870300000001      10.643465170000001             10.65170535
    64   1              5.30135953             12.34327315             12.43780641
    65   1      7.1084660900000003              0.03985644   -0.056979189999999999
    66   1      8.9559776699999993              1.66556817              1.77368821
    67   1      7.1618751899999999             -0.02413216      3.5827190799999999
    68   1      8.8156416199999992              1.83880098      5.3202758399999999
    69   1              7.10008236               0.0142519      7.0232133299999999
    70   1      8.9752521299999994              1.74540042      8.8601610500000003
    71   1              7.04843698   0.0062789100000000004      10.683642799999999
    72   1      8.8572433099999994      1.8760608700000001             12.50845196
    73   1      7.0420742199999999              3.67697663   -0.077905089999999996
    74   1      8.8817634600000002      5.4806751199999999      1.7431932800000001
    75   1              7.01600921      3.6061392200000002      3.4720323400000002
    76   1      8.7928326099999996      5.2246439899999997              5.38335629
    77   1      7.0452620000000001      3.4853007599999999      7.1777472700000002
    78   1      8.8645994899999998      5.2950507699999996      8.9244964299999996
    79   1      7.2405633700000003      3.5381030099999999      10.727129010000001
    80   1      8.8896909700000002      5.2760577099999999      12.409353769999999
    81   1      7.1026647000000001      7.1419427100000004    0.067560099999999998
    82   1              9.00231767      8.8870674199999993              1.71175184
    83   1      7.1459078900000002      7.0231408499999999              3.51648497
    84   1      8.8917730499999994      9.0797836099999998      5.2430031899999996
    85   1      7.2307300100000003      7.1000482500000004      7.1479018400000003
    86   1      8.8880054200000007      8.7860363800000005      8.9228876100000001
    87   1      7.1659455400000001              6.91711426              10.5801417
    88   1      8.8014650400000001      8.7702310899999993      12.436473319999999
    89   1      7.1526344799999997             10.50888645              0.02604511
    90   1      8.8830027499999993      12.472803730000001      1.7468216400000001
    91   1      7.1586859900000004             10.77184173      3.5436301000000001
    92   1      8.8839336499999995             12.53332457              5.32580293
    93   1      7.1685918300000004      10.594386500000001      6.9867322700000001
    94   1      8.7785977600000002      12.461463889999999      8.9160018500000007
    95   1      7.1735618099999998              10.7015998      10.780474160000001
    96   1      8.8683529100000005      12.310764369999999      12.452433510000001
    97   1             10.78646172    0.092063199999999998  -0.0026008200000000002
    98   1      12.403856530000001      1.8291268000000001              1.69041946
    99   1      10.647876610000001    0.098171560000000005               3.5419687
   100   1             12.51865057              1.80081628      5.3647554800000004
   101   1              10.6357821   -0.071199819999999997      7.1474498999999998
   102   1             12.29390313              1.73287671      8.8266318500000001
   103   1      10.726173960000001  -0.0039921799999999997             10.70309065
   104   1             12.45341983               1.7738886             12.49746032
   105   1             10.70119191      3.4850946899999999   -0.080888219999999997
   106   1             12.37301199              5.24391987              1.93153215
   107   1      10.720995070000001      3.5632584399999998      3.6834601899999999
   108   1             12.44100272      5.2492551000000001      5.2854718099999998
   109   1             10.59854354      3.5259417100000001      7.0711834600000003
   110   1             12.46869785      5.2740992799999997      8.9535744000000008
   111   1      10.724940350000001      3.5182984400000001      10.631946259999999
   112   1             12.28378695      5.2763177900000002             12.38475545
   113   1             10.68151099      7.0567425400000001   -0.053541279999999997
   114   1             12.48962944      8.9275420800000003              1.81799303
   115   1      10.578578370000001      7.0893891699999996      3.4015260700000001
   116   1      12.460389449999999      8.8317169399999997      5.3819180199999996
   117   1      10.718752390000001      7.1756381999999999      7.0720731399999996
   118   1      12.544186890000001      8.8277361299999999      8.7256619200000003
   119   1             10.63412639      7.0633653799999996      10.674289809999999
   120   1             12.38529836      8.8792024400000003             12.49838695
   121   1             10.62413244             10.75680674    0.062634179999999998
   122   1      12.390797020000001      12.433467459999999      1.8541344200000001
   123   1             10.58162544             10.74737416      3.5586807199999999
   124   1             12.46624484             12.33546786      5.3622029900000001
   125   1             10.57776117      10.608482070000001      6.9725855399999999
   126   1             12.46737755             12.25557165      8.9518177800000007
   127   1      10.789906739999999      10.696941069999999      10.572912000000001
   128   1             12.58343505      12.451478460000001      12.501135570000001
