(written by ASE)

2 atoms
1 atom types

0.0      3.0321975749415837  xlo xhi
0.0      3.0321975749415837  ylo yhi
0.0      3.0321975749415837  zlo zhi

Masses

     1      178.48999995408445 # Hf

Atoms # atomic

     1   1                       0                       0                       0
     2   1              1.51609879              1.51609879              1.51609879
