ITEM: TIMESTEP
0
ITEM: NUMBER OF ATOMS
21
ITEM: BOX BOUNDS pp ss pp
0.0000000000000000e+00 2.2653923264628304e+01
2.1918578738844549e-01 1.9767112263335882e+01
-2.8317404080785380e-01 2.8317404080785380e-01
ITEM: ATOMS id type xs ys zs
379 3 0.45 0.882866 0.5
380 3 0.475 0.931884 0.5
381 3 0.5 0.882866 0.5
382 3 0.525 0.931884 0.5
383 3 0.55 0.882866 0.5
384 3 0.575 0.931884 0.5
385 3 0.6 0.882866 0.5
386 3 0.625 0.931884 0.5
387 3 0.65 0.882866 0.5
388 3 0.675 0.931884 0.5
389 3 0.7 0.882866 0.5
390 3 0.725 0.931884 0.5
391 3 0.75 0.882866 0.5
392 3 0.775 0.931884 0.5
410 3 0.45 0.981104 0.5
411 3 0.5 0.981104 0.5
412 3 0.572665 0.9999 0.5
413 3 0.6 0.981104 0.5
414 3 0.65 0.981104 0.5
415 3 0.7 0.981104 0.5
416 3 0.75 0.981104 0.5
ITEM: TIMESTEP
10
ITEM: NUMBER OF ATOMS
21
ITEM: BOX BOUNDS pp ss pp
0.0000000000000000e+00 2.2653923264628304e+01
2.1918578738844549e-01 1.9916696838273182e+01
-2.8317404080785380e-01 2.8317404080785380e-01
ITEM: ATOMS id type xs ys zs
379 3 0.449996 0.876155 0.5
380 3 0.474974 0.924793 0.5
381 3 0.500006 0.876171 0.5
382 3 0.525083 0.92497 0.5
383 3 0.550003 0.87617 0.5
384 3 0.575068 0.925142 0.5
385 3 0.599837 0.875903 0.5
386 3 0.626357 0.922408 0.5
387 3 0.650407 0.875399 0.5
388 3 0.675314 0.92459 0.5
389 3 0.700044 0.876133 0.5
390 3 0.725027 0.924789 0.5
391 3 0.749999 0.876161 0.5
392 3 0.775 0.924807 0.5
410 3 0.449984 0.973661 0.5
411 3 0.500016 0.973732 0.5
412 3 0.566884 1.00191 0.5
413 3 0.604562 0.970183 0.5
414 3 0.652092 0.973718 0.5
415 3 0.700456 0.97366 0.5
416 3 0.750029 0.97366 0.5
ITEM: TIMESTEP
20
ITEM: NUMBER OF ATOMS
21
ITEM: BOX BOUNDS pp ss pp
0.0000000000000000e+00 2.2653923264628304e+01
2.1918578738844549e-01 1.9916696838273182e+01
-2.8317404080785380e-01 2.8317404080785380e-01
ITEM: ATOMS id type xs ys zs
379 3 0.450032 0.876194 0.5
380 3 0.475054 0.924903 0.5
381 3 0.500102 0.876322 0.5
382 3 0.525309 0.925241 0.5
383 3 0.550126 0.876284 0.5
384 3 0.575493 0.925136 0.5
385 3 0.600163 0.875902 0.5
386 3 0.626337 0.923471 0.5
387 3 0.650631 0.875279 0.5
388 3 0.675939 0.924133 0.5
389 3 0.70048 0.875663 0.5
390 3 0.725538 0.924546 0.5
391 3 0.750263 0.875956 0.5
392 3 0.775257 0.924723 0.5
410 3 0.449964 0.973694 0.5
411 3 0.500037 0.973981 0.5
412 3 0.564476 1.00559 0.5
413 3 0.60301 0.972026 0.5
414 3 0.651794 0.972953 0.5
415 3 0.701005 0.973433 0.5
416 3 0.750515 0.973627 0.5
ITEM: TIMESTEP
30
ITEM: NUMBER OF ATOMS
21
ITEM: BOX BOUNDS pp ss pp
0.0000000000000000e+00 2.2653923264628304e+01
2.1918578738844549e-01 2.0040664701973611e+01
-2.8317404080785380e-01 2.8317404080785380e-01
ITEM: ATOMS id type xs ys zs
379 3 0.450112 0.870779 0.5
380 3 0.475141 0.919204 0.5
381 3 0.500221 0.870946 0.5
382 3 0.525409 0.919593 0.5
383 3 0.55026 0.870927 0.5
384 3 0.575537 0.919544 0.5
385 3 0.600259 0.870587 0.5
386 3 0.626048 0.918227 0.5
387 3 0.65055 0.870056 0.5
388 3 0.675852 0.918384 0.5
389 3 0.700518 0.870162 0.5
390 3 0.725602 0.918641 0.5
391 3 0.750387 0.87036 0.5
392 3 0.775386 0.918842 0.5
410 3 0.449992 0.967647 0.5
411 3 0.500094 0.968019 0.5
412 3 0.563652 1.00064 0.5
413 3 0.60235 0.966769 0.5
414 3 0.651463 0.96694 0.5
415 3 0.7009 0.967169 0.5
416 3 0.750545 0.967394 0.5
ITEM: TIMESTEP
40
ITEM: NUMBER OF ATOMS
21
ITEM: BOX BOUNDS pp ss pp
0.0000000000000000e+00 2.2653923264628304e+01
2.1918578738844549e-01 2.0040664701973611e+01
-2.8317404080785380e-01 2.8317404080785380e-01
ITEM: ATOMS id type xs ys zs
379 3 0.450168 0.870829 0.5
380 3 0.475182 0.919275 0.5
381 3 0.500275 0.871019 0.5
382 3 0.52542 0.919691 0.5
383 3 0.5503 0.871036 0.5
384 3 0.575502 0.919717 0.5
385 3 0.600261 0.870741 0.5
386 3 0.625909 0.918509 0.5
387 3 0.650481 0.870228 0.5
388 3 0.675757 0.918501 0.5
389 3 0.700476 0.87022 0.5
390 3 0.725572 0.918624 0.5
391 3 0.750396 0.870331 0.5
392 3 0.775407 0.918774 0.5
410 3 0.450015 0.967697 0.5
411 3 0.500122 0.968125 0.5
412 3 0.563335 1.00121 0.5
413 3 0.60208 0.967154 0.5
414 3 0.651315 0.967122 0.5
415 3 0.700839 0.967177 0.5
416 3 0.750536 0.967318 0.5
ITEM: TIMESTEP
50
ITEM: NUMBER OF ATOMS
21
ITEM: BOX BOUNDS pp ss pp
0.0000000000000000e+00 2.2653923264628304e+01
2.1918578738844549e-01 2.0040664701973611e+01
-2.8317404080785380e-01 2.8317404080785380e-01
ITEM: ATOMS id type xs ys zs
379 3 0.450198 0.870872 0.5
380 3 0.475196 0.919334 0.5
381 3 0.500298 0.871079 0.5
382 3 0.525416 0.919771 0.5
383 3 0.550314 0.871124 0.5
384 3 0.575481 0.919841 0.5
385 3 0.600256 0.870854 0.5
386 3 0.625857 0.918666 0.5
387 3 0.650447 0.87034 0.5
388 3 0.675717 0.918595 0.5
389 3 0.700447 0.870278 0.5
390 3 0.725553 0.918647 0.5
391 3 0.750387 0.870335 0.5
392 3 0.775409 0.918748 0.5
410 3 0.45002 0.967746 0.5
411 3 0.500124 0.968206 0.5
412 3 0.563229 1.00147 0.5
413 3 0.601987 0.967348 0.5
414 3 0.651266 0.96725 0.5
415 3 0.700824 0.967227 0.5
416 3 0.750542 0.967303 0.5
ITEM: TIMESTEP
60
ITEM: NUMBER OF ATOMS
21
ITEM: BOX BOUNDS pp ss pp
0.0000000000000000e+00 2.2653923264628304e+01
2.1918578738844549e-01 2.0040664701973611e+01
-2.8317404080785380e-01 2.8317404080785380e-01
ITEM: ATOMS id type xs ys zs
379 3 0.450213 0.870904 0.5
380 3 0.475201 0.919376 0.5
381 3 0.500309 0.871123 0.5
382 3 0.525414 0.919826 0.5
383 3 0.550321 0.871184 0.5
384 3 0.575475 0.919916 0.5
385 3 0.600256 0.870923 0.5
386 3 0.625844 0.91875 0.5
387 3 0.650437 0.870405 0.5
388 3 0.675708 0.918653 0.5
389 3 0.700438 0.870318 0.5
390 3 0.725551 0.918671 0.5
391 3 0.750383 0.870346 0.5
392 3 0.775415 0.918743 0.5
410 3 0.450017 0.967783 0.5
411 3 0.500117 0.968259 0.5
412 3 0.563206 1.00159 0.5
413 3 0.601965 0.967445 0.5
414 3 0.65126 0.967323 0.5
415 3 0.70083 0.967266 0.5
416 3 0.750555 0.967308 0.5
ITEM: TIMESTEP
70
ITEM: NUMBER OF ATOMS
21
ITEM: BOX BOUNDS pp ss pp
0.0000000000000000e+00 2.2653923264628304e+01
2.1918578738844549e-01 2.0040664701973611e+01
-2.8317404080785380e-01 2.8317404080785380e-01
ITEM: ATOMS id type xs ys zs
379 3 0.450223 0.870932 0.5
380 3 0.475203 0.919411 0.5
381 3 0.500317 0.871162 0.5
382 3 0.525415 0.919872 0.5
383 3 0.550327 0.871232 0.5
384 3 0.575476 0.919973 0.5
385 3 0.600259 0.870975 0.5
386 3 0.625843 0.918807 0.5
387 3 0.650436 0.870452 0.5
388 3 0.675709 0.918695 0.5
389 3 0.700437 0.870349 0.5
390 3 0.725556 0.918693 0.5
391 3 0.750385 0.870358 0.5
392 3 0.775423 0.918745 0.5
410 3 0.450013 0.967814 0.5
411 3 0.500111 0.968301 0.5
412 3 0.563208 1.00168 0.5
413 3 0.601964 0.96751 0.5
414 3 0.651266 0.967375 0.5
415 3 0.700843 0.967298 0.5
416 3 0.750571 0.967318 0.5
ITEM: TIMESTEP
80
ITEM: NUMBER OF ATOMS
21
ITEM: BOX BOUNDS pp ss pp
0.0000000000000000e+00 2.2653923264628304e+01
2.1918578738844549e-01 2.0040664701973611e+01
-2.8317404080785380e-01 2.8317404080785380e-01
ITEM: ATOMS id type xs ys zs
379 3 0.450232 0.870959 0.5
380 3 0.475206 0.919443 0.5
381 3 0.500325 0.871197 0.5
382 3 0.525417 0.919913 0.5
383 3 0.550334 0.871275 0.5
384 3 0.575481 0.920022 0.5
385 3 0.600264 0.87102 0.5
386 3 0.625849 0.918853 0.5
387 3 0.65044 0.870491 0.5
388 3 0.675717 0.91873 0.5
389 3 0.70044 0.870376 0.5
390 3 0.725566 0.918713 0.5
391 3 0.75039 0.87037 0.5
392 3 0.775435 0.91875 0.5
410 3 0.45001 0.967843 0.5
411 3 0.500105 0.968339 0.5
412 3 0.563223 1.00174 0.5
413 3 0.601972 0.967561 0.5
414 3 0.651278 0.967417 0.5
415 3 0.700859 0.967326 0.5
416 3 0.75059 0.96733 0.5
ITEM: TIMESTEP
87
ITEM: NUMBER OF ATOMS
21
ITEM: BOX BOUNDS pp ss pp
0.0000000000000000e+00 2.2653923264628304e+01
2.1918578738844549e-01 2.0040664701973611e+01
-2.8317404080785380e-01 2.8317404080785380e-01
ITEM: ATOMS id type xs ys zs
379 3 0.450237 0.870973 0.5
380 3 0.475207 0.919459 0.5
381 3 0.50033 0.871215 0.5
382 3 0.525419 0.919933 0.5
383 3 0.550338 0.871296 0.5
384 3 0.575485 0.920045 0.5
385 3 0.600268 0.871041 0.5
386 3 0.625853 0.918874 0.5
387 3 0.650444 0.870508 0.5
388 3 0.675722 0.918747 0.5
389 3 0.700444 0.870389 0.5
390 3 0.725572 0.918723 0.5
391 3 0.750394 0.870377 0.5
392 3 0.775442 0.918753 0.5
410 3 0.450008 0.967858 0.5
411 3 0.500102 0.968357 0.5
412 3 0.563235 1.00177 0.5
413 3 0.601979 0.967584 0.5
414 3 0.651286 0.967436 0.5
415 3 0.700868 0.967339 0.5
416 3 0.7506 0.967336 0.5
ITEM: TIMESTEP
90
ITEM: NUMBER OF ATOMS
21
ITEM: BOX BOUNDS pp ss pp
0.0000000000000000e+00 2.2653923264628304e+01
2.1918578738844549e-01 2.0077780227670736e+01
-2.8317404080785380e-01 2.8317404080785380e-01
ITEM: ATOMS id type xs ys zs
379 3 0.450238 0.869348 0.5
380 3 0.475208 0.917744 0.5
381 3 0.500331 0.86959 0.5
382 3 0.525419 0.918218 0.5
383 3 0.550339 0.869672 0.5
384 3 0.575486 0.91833 0.5
385 3 0.600269 0.869417 0.5
386 3 0.625855 0.917161 0.5
387 3 0.650444 0.868885 0.5
388 3 0.675724 0.917033 0.5
389 3 0.700445 0.868764 0.5
390 3 0.725573 0.917008 0.5
391 3 0.750395 0.868751 0.5
392 3 0.775444 0.917036 0.5
410 3 0.450008 0.966052 0.5
411 3 0.500102 0.966551 0.5
412 3 0.56323 0.999901 0.5
413 3 0.60198 0.96578 0.5
414 3 0.651288 0.965632 0.5
415 3 0.70087 0.965534 0.5
416 3 0.750602 0.965529 0.5
ITEM: TIMESTEP
100
ITEM: NUMBER OF ATOMS
21
ITEM: BOX BOUNDS pp ss pp
0.0000000000000000e+00 2.2653923264628304e+01
2.1918578738844549e-01 2.0077780227670736e+01
-2.8317404080785380e-01 2.8317404080785380e-01
ITEM: ATOMS id type xs ys zs
379 3 0.450249 0.869379 0.5
380 3 0.475214 0.917781 0.5
381 3 0.500341 0.869629 0.5
382 3 0.525427 0.918262 0.5
383 3 0.55035 0.869716 0.5
384 3 0.575496 0.91838 0.5
385 3 0.600279 0.869461 0.5
386 3 0.625866 0.917207 0.5
387 3 0.650455 0.868922 0.5
388 3 0.675739 0.917065 0.5
389 3 0.700456 0.868791 0.5
390 3 0.72559 0.917028 0.5
391 3 0.750407 0.868766 0.5
392 3 0.775462 0.917044 0.5
410 3 0.450008 0.966085 0.5
411 3 0.500104 0.966592 0.5
412 3 0.563181 0.999875 0.5
413 3 0.601994 0.965831 0.5
414 3 0.651306 0.96567 0.5
415 3 0.700893 0.96556 0.5
416 3 0.750627 0.965543 0.5
ITEM: TIMESTEP
110
ITEM: NUMBER OF ATOMS
21
ITEM: BOX BOUNDS pp ss pp
0.0000000000000000e+00 2.2653923264628304e+01
2.1918578738844549e-01 2.0077780227670736e+01
-2.8317404080785380e-01 2.8317404080785380e-01
ITEM: ATOMS id type xs ys zs
379 3 0.450255 0.869395 0.5
380 3 0.475218 0.917799 0.5
381 3 0.500347 0.869648 0.5
382 3 0.525431 0.918284 0.5
383 3 0.550356 0.869738 0.5
384 3 0.575502 0.918404 0.5
385 3 0.600285 0.869483 0.5
386 3 0.625873 0.917227 0.5
387 3 0.65046 0.868941 0.5
388 3 0.675747 0.917082 0.5
389 3 0.700462 0.868804 0.5
390 3 0.725599 0.917039 0.5
391 3 0.750414 0.868773 0.5
392 3 0.775471 0.917049 0.5
410 3 0.45001 0.966101 0.5
411 3 0.500106 0.966613 0.5
412 3 0.563153 0.999851 0.5
413 3 0.602002 0.965856 0.5
414 3 0.651316 0.965688 0.5
415 3 0.700905 0.965573 0.5
416 3 0.75064 0.965551 0.5
ITEM: TIMESTEP
120
ITEM: NUMBER OF ATOMS
21
ITEM: BOX BOUNDS pp ss pp
0.0000000000000000e+00 2.2653923264628304e+01
2.1918578738844549e-01 2.0077780227670736e+01
-2.8317404080785380e-01 2.8317404080785380e-01
ITEM: ATOMS id type xs ys zs
379 3 0.450264 0.869418 0.5
380 3 0.475225 0.917825 0.5
381 3 0.500356 0.869676 0.5
382 3 0.525439 0.918314 0.5
383 3 0.550366 0.869769 0.5
384 3 0.575511 0.918438 0.5
385 3 0.600293 0.869512 0.5
386 3 0.625883 0.917257 0.5
387 3 0.650469 0.868966 0.5
388 3 0.675759 0.917104 0.5
389 3 0.700472 0.868823 0.5
390 3 0.725613 0.917053 0.5
391 3 0.750426 0.868785 0.5
392 3 0.775487 0.917056 0.5
410 3 0.450013 0.966125 0.5
411 3 0.500112 0.966642 0.5
412 3 0.563107 0.999804 0.5
413 3 0.602014 0.965891 0.5
414 3 0.651332 0.965713 0.5
415 3 0.700922 0.965591 0.5
416 3 0.750659 0.965561 0.5
ITEM: TIMESTEP
124
ITEM: NUMBER OF ATOMS
21
ITEM: BOX BOUNDS pp ss pp
0.0000000000000000e+00 2.2653923264628304e+01
2.1918578738844549e-01 2.0077780227670736e+01
-2.8317404080785380e-01 2.8317404080785380e-01
ITEM: ATOMS id type xs ys zs
379 3 0.450266 0.869423 0.5
380 3 0.475226 0.917831 0.5
381 3 0.500358 0.869681 0.5
382 3 0.525441 0.91832 0.5
383 3 0.550368 0.869775 0.5
384 3 0.575512 0.918445 0.5
385 3 0.600295 0.869518 0.5
386 3 0.625885 0.917262 0.5
387 3 0.650471 0.868971 0.5
388 3 0.675761 0.917108 0.5
389 3 0.700475 0.868826 0.5
390 3 0.725616 0.917056 0.5
391 3 0.750428 0.868787 0.5
392 3 0.77549 0.917058 0.5
410 3 0.450014 0.96613 0.5
411 3 0.500113 0.966648 0.5
412 3 0.563097 0.999793 0.5
413 3 0.602017 0.965898 0.5
414 3 0.651335 0.965718 0.5
415 3 0.700925 0.965595 0.5
416 3 0.750663 0.965563 0.5
