ITEM: TIMESTEP
0
ITEM: NUMBER OF ATOMS
399
ITEM: BOX BOUNDS pp ss pp
0.0000000000000000e+00 2.2653923264628304e+01
2.1918578738844549e-01 2.0501962279681717e+01
-2.8317404080785380e-01 2.8317404080785380e-01
ITEM: ATOMS id type xs ys zs
1 2 8.07463e-18 9.67461e-05 0.5
2 2 0.025 0.0475333 0.5
3 2 0.05 9.67461e-05 0.5
4 2 0.075 0.0475333 0.5
5 2 0.1 9.67461e-05 0.5
6 2 0.125 0.0475333 0.5
7 2 0.15 9.67461e-05 0.5
8 2 0.175 0.0475333 0.5
9 2 0.2 9.67461e-05 0.5
10 2 0.225 0.0475333 0.5
11 2 0.25 9.67461e-05 0.5
12 2 0.275 0.0475333 0.5
13 2 0.3 9.67461e-05 0.5
14 2 0.325 0.0475333 0.5
15 2 0.35 9.67461e-05 0.5
16 2 0.375 0.0475333 0.5
17 2 0.4 9.67461e-05 0.5
18 2 0.425 0.0475333 0.5
19 2 0.45 9.67461e-05 0.5
20 2 0.475 0.0475333 0.5
21 2 0.5 9.67461e-05 0.5
22 2 0.525 0.0475333 0.5
23 2 0.55 9.67461e-05 0.5
24 2 0.575 0.0475333 0.5
25 2 0.6 9.67461e-05 0.5
26 2 0.625 0.0475333 0.5
27 2 0.65 9.67461e-05 0.5
28 2 0.675 0.0475333 0.5
29 2 0.7 9.67461e-05 0.5
30 2 0.725 0.0475333 0.5
31 2 0.75 9.67461e-05 0.5
32 2 0.775 0.0475333 0.5
33 2 0.8 9.67461e-05 0.5
34 2 0.825 0.0475333 0.5
35 2 0.85 9.67461e-05 0.5
36 2 0.875 0.0475333 0.5
37 2 0.9 9.67461e-05 0.5
38 2 0.925 0.0475333 0.5
39 2 0.95 9.67461e-05 0.5
40 2 0.975 0.0475333 0.5
41 2 1.06974e-17 0.0947754 0.5
42 1 0.025 0.142009 0.5
43 2 0.05 0.0947754 0.5
44 1 0.075 0.142009 0.5
45 2 0.1 0.0947754 0.5
46 1 0.125 0.142009 0.5
47 2 0.15 0.0947754 0.5
48 1 0.175 0.142009 0.5
49 2 0.2 0.0947754 0.5
50 1 0.225 0.142009 0.5
51 2 0.25 0.0947754 0.5
52 1 0.275 0.142009 0.5
53 2 0.3 0.0947754 0.5
54 1 0.325 0.142009 0.5
55 2 0.35 0.0947754 0.5
56 1 0.375 0.142009 0.5
57 2 0.4 0.0947754 0.5
58 1 0.425 0.142009 0.5
59 2 0.45 0.0947754 0.5
60 1 0.475 0.142009 0.5
61 2 0.5 0.0947754 0.5
62 1 0.525 0.142009 0.5
63 2 0.55 0.0947754 0.5
64 1 0.575 0.142009 0.5
65 2 0.6 0.0947754 0.5
66 1 0.625 0.142009 0.5
67 2 0.65 0.0947754 0.5
68 1 0.675 0.142009 0.5
69 2 0.7 0.0947754 0.5
70 1 0.725 0.142009 0.5
71 2 0.75 0.0947754 0.5
72 1 0.775 0.142009 0.5
73 2 0.8 0.0947754 0.5
74 1 0.825 0.142009 0.5
75 2 0.85 0.0947754 0.5
76 1 0.875 0.142009 0.5
77 2 0.9 0.0947754 0.5
78 1 0.925 0.142009 0.5
79 2 0.95 0.0947754 0.5
80 1 0.975 0.142009 0.5
81 1 2.30284e-18 0.189265 0.5
82 1 0.025 0.236519 0.5
83 1 0.05 0.189265 0.5
84 1 0.075 0.236519 0.5
85 1 0.1 0.189265 0.5
86 1 0.125 0.236519 0.5
87 1 0.15 0.189265 0.5
88 1 0.175 0.236519 0.5
89 1 0.2 0.189265 0.5
90 1 0.225 0.236519 0.5
91 1 0.25 0.189265 0.5
92 1 0.275 0.236519 0.5
93 1 0.3 0.189265 0.5
94 1 0.325 0.236519 0.5
95 1 0.35 0.189265 0.5
96 1 0.375 0.236519 0.5
97 1 0.4 0.189265 0.5
98 1 0.425 0.236519 0.5
99 1 0.45 0.189265 0.5
100 1 0.475 0.236519 0.5
101 1 0.5 0.189265 0.5
102 1 0.525 0.236519 0.5
103 1 0.55 0.189265 0.5
104 1 0.575 0.236519 0.5
105 1 0.6 0.189265 0.5
106 1 0.625 0.236519 0.5
107 1 0.65 0.189265 0.5
108 1 0.675 0.236519 0.5
109 1 0.7 0.189265 0.5
110 1 0.725 0.236519 0.5
111 1 0.75 0.189265 0.5
112 1 0.775 0.236519 0.5
113 1 0.8 0.189265 0.5
114 1 0.825 0.236519 0.5
115 1 0.85 0.189265 0.5
116 1 0.875 0.236519 0.5
117 1 0.9 0.189265 0.5
118 1 0.925 0.236519 0.5
119 1 0.95 0.189265 0.5
120 1 0.975 0.236519 0.5
121 1 0 0.28378 0.5
122 1 0.025 0.331045 0.5
123 1 0.05 0.28378 0.5
124 1 0.075 0.331045 0.5
125 1 0.1 0.28378 0.5
126 1 0.125 0.331045 0.5
127 1 0.15 0.28378 0.5
128 1 0.175 0.331045 0.5
129 1 0.2 0.28378 0.5
130 1 0.225 0.331045 0.5
131 1 0.25 0.28378 0.5
132 1 0.275 0.331045 0.5
133 1 0.3 0.28378 0.5
134 1 0.325 0.331045 0.5
135 1 0.35 0.28378 0.5
136 1 0.375 0.331045 0.5
137 1 0.4 0.28378 0.5
138 1 0.425 0.331045 0.5
139 1 0.45 0.28378 0.5
140 1 0.475 0.331045 0.5
141 1 0.5 0.28378 0.5
142 1 0.525 0.331045 0.5
143 1 0.55 0.28378 0.5
144 1 0.575 0.331045 0.5
145 1 0.6 0.28378 0.5
146 1 0.625 0.331045 0.5
147 1 0.65 0.28378 0.5
148 1 0.675 0.331045 0.5
149 1 0.7 0.28378 0.5
150 1 0.725 0.331045 0.5
151 1 0.75 0.28378 0.5
152 1 0.775 0.331045 0.5
153 1 0.8 0.28378 0.5
154 1 0.825 0.331045 0.5
155 1 0.85 0.28378 0.5
156 1 0.875 0.331045 0.5
157 1 0.9 0.28378 0.5
158 1 0.925 0.331045 0.5
159 1 0.95 0.28378 0.5
160 1 0.975 0.331045 0.5
161 1 0 0.378304 0.5
162 1 0.025 0.425565 0.5
163 1 0.05 0.378304 0.5
164 1 0.075 0.425565 0.5
165 1 0.1 0.378304 0.5
166 1 0.125 0.425565 0.5
167 1 0.15 0.378304 0.5
168 1 0.175 0.425565 0.5
169 1 0.2 0.378304 0.5
170 1 0.225 0.425565 0.5
171 1 0.25 0.378304 0.5
172 1 0.275 0.425565 0.5
173 1 0.3 0.378304 0.5
174 1 0.325 0.425565 0.5
175 1 0.35 0.378304 0.5
176 1 0.375 0.425565 0.5
177 1 0.4 0.378304 0.5
178 1 0.425 0.425565 0.5
179 1 0.45 0.378304 0.5
180 1 0.475 0.425565 0.5
181 1 0.5 0.378304 0.5
182 1 0.525 0.425565 0.5
183 1 0.55 0.378304 0.5
184 1 0.575 0.425565 0.5
185 1 0.6 0.378304 0.5
186 1 0.625 0.425565 0.5
187 1 0.65 0.378304 0.5
188 1 0.675 0.425565 0.5
189 1 0.7 0.378304 0.5
190 1 0.725 0.425565 0.5
191 1 0.75 0.378304 0.5
192 1 0.775 0.425565 0.5
193 1 0.8 0.378304 0.5
194 1 0.825 0.425565 0.5
195 1 0.85 0.378304 0.5
196 1 0.875 0.425565 0.5
197 1 0.9 0.378304 0.5
198 1 0.925 0.425565 0.5
199 1 0.95 0.378304 0.5
200 1 0.975 0.425565 0.5
201 1 1.08893e-18 0.472827 0.5
202 1 0.025 0.52009 0.5
203 1 0.05 0.472827 0.5
204 1 0.075 0.52009 0.5
205 1 0.1 0.472827 0.5
206 1 0.125 0.52009 0.5
207 1 0.15 0.472827 0.5
208 1 0.175 0.52009 0.5
209 1 0.2 0.472827 0.5
210 1 0.225 0.52009 0.5
211 1 0.25 0.472827 0.5
212 1 0.275 0.52009 0.5
213 1 0.3 0.472827 0.5
214 1 0.325 0.52009 0.5
215 1 0.35 0.472827 0.5
216 1 0.375 0.52009 0.5
217 1 0.4 0.472827 0.5
218 1 0.425 0.52009 0.5
219 1 0.45 0.472827 0.5
220 1 0.475 0.52009 0.5
221 1 0.5 0.472827 0.5
222 1 0.525 0.52009 0.5
223 1 0.55 0.472827 0.5
224 1 0.575 0.52009 0.5
225 1 0.6 0.472827 0.5
226 1 0.625 0.52009 0.5
227 1 0.65 0.472827 0.5
228 1 0.675 0.52009 0.5
229 1 0.7 0.472827 0.5
230 1 0.725 0.52009 0.5
231 1 0.75 0.472827 0.5
232 1 0.775 0.52009 0.5
233 1 0.8 0.472827 0.5
234 1 0.825 0.52009 0.5
235 1 0.85 0.472827 0.5
236 1 0.875 0.52009 0.5
237 1 0.9 0.472827 0.5
238 1 0.925 0.52009 0.5
239 1 0.95 0.472827 0.5
240 1 0.975 0.52009 0.5
241 1 0 0.56735 0.5
242 1 0.025 0.614609 0.5
243 1 0.05 0.56735 0.5
244 1 0.075 0.614609 0.5
245 1 0.1 0.56735 0.5
246 1 0.125 0.614609 0.5
247 1 0.15 0.56735 0.5
248 1 0.175 0.614609 0.5
249 1 0.2 0.56735 0.5
250 1 0.225 0.614609 0.5
251 1 0.25 0.56735 0.5
252 1 0.275 0.614609 0.5
253 1 0.3 0.56735 0.5
254 1 0.325 0.614609 0.5
255 1 0.35 0.56735 0.5
256 1 0.375 0.614609 0.5
257 1 0.4 0.56735 0.5
258 1 0.425 0.614609 0.5
259 1 0.45 0.56735 0.5
260 1 0.475 0.614609 0.5
261 1 0.5 0.56735 0.5
262 1 0.525 0.614609 0.5
263 1 0.55 0.56735 0.5
264 1 0.575 0.614609 0.5
265 1 0.6 0.56735 0.5
266 1 0.625 0.614609 0.5
267 1 0.65 0.56735 0.5
268 1 0.675 0.614609 0.5
269 1 0.7 0.56735 0.5
270 1 0.725 0.614609 0.5
271 1 0.75 0.56735 0.5
272 1 0.775 0.614609 0.5
273 1 0.8 0.56735 0.5
274 1 0.825 0.614609 0.5
275 1 0.85 0.56735 0.5
276 1 0.875 0.614609 0.5
277 1 0.9 0.56735 0.5
278 1 0.925 0.614609 0.5
279 1 0.95 0.56735 0.5
280 1 0.975 0.614609 0.5
281 1 1.89763e-18 0.661874 0.5
282 1 0.025 0.709136 0.5
283 1 0.05 0.661874 0.5
284 1 0.075 0.709136 0.5
285 1 0.1 0.661874 0.5
286 1 0.125 0.709136 0.5
287 1 0.15 0.661874 0.5
288 1 0.175 0.709136 0.5
289 1 0.2 0.661874 0.5
290 1 0.225 0.709136 0.5
291 1 0.25 0.661874 0.5
292 1 0.275 0.709136 0.5
293 1 0.3 0.661874 0.5
294 1 0.325 0.709136 0.5
295 1 0.35 0.661874 0.5
296 1 0.375 0.709136 0.5
297 1 0.4 0.661874 0.5
298 1 0.425 0.709136 0.5
299 1 0.45 0.661874 0.5
300 1 0.475 0.709136 0.5
301 1 0.5 0.661874 0.5
302 1 0.525 0.709136 0.5
303 1 0.55 0.661874 0.5
304 1 0.575 0.709136 0.5
305 1 0.6 0.661874 0.5
306 1 0.625 0.709136 0.5
307 1 0.65 0.661874 0.5
308 1 0.675 0.709136 0.5
309 1 0.7 0.661874 0.5
310 1 0.725 0.709136 0.5
311 1 0.75 0.661874 0.5
312 1 0.775 0.709136 0.5
313 1 0.8 0.661874 0.5
314 1 0.825 0.709136 0.5
315 1 0.85 0.661874 0.5
316 1 0.875 0.709136 0.5
317 1 0.9 0.661874 0.5
318 1 0.925 0.709136 0.5
319 1 0.95 0.661874 0.5
320 1 0.975 0.709136 0.5
321 1 4.28459e-18 0.756389 0.5
322 1 0.025 0.803645 0.5
323 1 0.05 0.756389 0.5
324 1 0.075 0.803645 0.5
325 1 0.1 0.756389 0.5
326 1 0.125 0.803645 0.5
327 1 0.15 0.756389 0.5
328 1 0.175 0.803645 0.5
329 1 0.2 0.756389 0.5
330 1 0.225 0.803645 0.5
331 1 0.25 0.756389 0.5
332 1 0.275 0.803645 0.5
333 1 0.3 0.756389 0.5
334 1 0.325 0.803645 0.5
335 1 0.35 0.756389 0.5
336 1 0.375 0.803645 0.5
337 1 0.4 0.756389 0.5
338 1 0.425 0.803645 0.5
339 1 0.45 0.756389 0.5
340 1 0.475 0.803645 0.5
341 1 0.5 0.756389 0.5
342 1 0.525 0.803645 0.5
343 1 0.55 0.756389 0.5
344 1 0.575 0.803645 0.5
345 1 0.6 0.756389 0.5
346 1 0.625 0.803645 0.5
347 1 0.65 0.756389 0.5
348 1 0.675 0.803645 0.5
349 1 0.7 0.756389 0.5
350 1 0.725 0.803645 0.5
351 1 0.75 0.756389 0.5
352 1 0.775 0.803645 0.5
353 1 0.8 0.756389 0.5
354 1 0.825 0.803645 0.5
355 1 0.85 0.756389 0.5
356 1 0.875 0.803645 0.5
357 1 0.9 0.756389 0.5
358 1 0.925 0.803645 0.5
359 1 0.95 0.756389 0.5
360 1 0.975 0.803645 0.5
361 1 0 0.850879 0.5
362 1 0.025 0.898121 0.5
363 1 0.05 0.850879 0.5
364 1 0.075 0.898121 0.5
365 1 0.1 0.850879 0.5
366 1 0.125 0.898121 0.5
367 1 0.15 0.850879 0.5
368 1 0.175 0.898121 0.5
369 1 0.2 0.850879 0.5
370 1 0.225 0.898121 0.5
371 1 0.25 0.850879 0.5
372 1 0.275 0.898121 0.5
373 1 0.3 0.850879 0.5
374 1 0.325 0.898121 0.5
375 1 0.35 0.850879 0.5
376 1 0.375 0.898121 0.5
377 1 0.4 0.850879 0.5
378 1 0.425 0.898121 0.5
393 1 0.8 0.850879 0.5
394 1 0.825 0.898121 0.5
395 1 0.85 0.850879 0.5
396 1 0.875 0.898121 0.5
397 1 0.9 0.850879 0.5
398 1 0.925 0.898121 0.5
399 1 0.95 0.850879 0.5
400 1 0.975 0.898121 0.5
401 1 2.28651e-18 0.945558 0.5
402 1 0.05 0.945558 0.5
403 1 0.1 0.945558 0.5
404 1 0.15 0.945558 0.5
405 1 0.2 0.945558 0.5
406 1 0.25 0.945558 0.5
407 1 0.3 0.945558 0.5
408 1 0.35 0.945558 0.5
409 1 0.4 0.945558 0.5
417 1 0.8 0.945558 0.5
418 1 0.85 0.945558 0.5
419 1 0.9 0.945558 0.5
420 1 0.95 0.945558 0.5
ITEM: TIMESTEP
10
ITEM: NUMBER OF ATOMS
399
ITEM: BOX BOUNDS pp ss pp
0.0000000000000000e+00 2.2653923264628304e+01
2.1918578738844549e-01 2.0501962279681717e+01
-2.8317404080785380e-01 2.8317404080785380e-01
ITEM: ATOMS id type xs ys zs
1 2 8.07463e-18 9.67461e-05 0.5
2 2 0.025 0.0475333 0.5
3 2 0.05 9.67461e-05 0.5
4 2 0.075 0.0475333 0.5
5 2 0.1 9.67461e-05 0.5
6 2 0.125 0.0475333 0.5
7 2 0.15 9.67461e-05 0.5
8 2 0.175 0.0475333 0.5
9 2 0.2 9.67461e-05 0.5
10 2 0.225 0.0475333 0.5
11 2 0.25 9.67461e-05 0.5
12 2 0.275 0.0475333 0.5
13 2 0.3 9.67461e-05 0.5
14 2 0.325 0.0475333 0.5
15 2 0.35 9.67461e-05 0.5
16 2 0.375 0.0475333 0.5
17 2 0.4 9.67461e-05 0.5
18 2 0.425 0.0475333 0.5
19 2 0.45 9.67461e-05 0.5
20 2 0.475 0.0475333 0.5
21 2 0.5 9.67461e-05 0.5
22 2 0.525 0.0475333 0.5
23 2 0.55 9.67461e-05 0.5
24 2 0.575 0.0475333 0.5
25 2 0.6 9.67461e-05 0.5
26 2 0.625 0.0475333 0.5
27 2 0.65 9.67461e-05 0.5
28 2 0.675 0.0475333 0.5
29 2 0.7 9.67461e-05 0.5
30 2 0.725 0.0475333 0.5
31 2 0.75 9.67461e-05 0.5
32 2 0.775 0.0475333 0.5
33 2 0.8 9.67461e-05 0.5
34 2 0.825 0.0475333 0.5
35 2 0.85 9.67461e-05 0.5
36 2 0.875 0.0475333 0.5
37 2 0.9 9.67461e-05 0.5
38 2 0.925 0.0475333 0.5
39 2 0.95 9.67461e-05 0.5
40 2 0.975 0.0475333 0.5
41 2 1.06974e-17 0.0947754 0.5
42 1 0.025 0.142019 0.5
43 2 0.05 0.0947754 0.5
44 1 0.075 0.142019 0.5
45 2 0.1 0.0947754 0.5
46 1 0.125 0.142019 0.5
47 2 0.15 0.0947754 0.5
48 1 0.175 0.142019 0.5
49 2 0.2 0.0947754 0.5
50 1 0.225 0.142019 0.5
51 2 0.25 0.0947754 0.5
52 1 0.275 0.142019 0.5
53 2 0.3 0.0947754 0.5
54 1 0.325 0.142019 0.5
55 2 0.35 0.0947754 0.5
56 1 0.375 0.142019 0.5
57 2 0.4 0.0947754 0.5
58 1 0.425 0.142019 0.5
59 2 0.45 0.0947754 0.5
60 1 0.475 0.142019 0.5
61 2 0.5 0.0947754 0.5
62 1 0.525 0.142019 0.5
63 2 0.55 0.0947754 0.5
64 1 0.575 0.142019 0.5
65 2 0.6 0.0947754 0.5
66 1 0.625 0.142019 0.5
67 2 0.65 0.0947754 0.5
68 1 0.675 0.142019 0.5
69 2 0.7 0.0947754 0.5
70 1 0.725 0.142019 0.5
71 2 0.75 0.0947754 0.5
72 1 0.775 0.142019 0.5
73 2 0.8 0.0947754 0.5
74 1 0.825 0.142019 0.5
75 2 0.85 0.0947754 0.5
76 1 0.875 0.142019 0.5
77 2 0.9 0.0947754 0.5
78 1 0.925 0.142019 0.5
79 2 0.95 0.0947754 0.5
80 1 0.975 0.142019 0.5
81 1 2.7964e-19 0.189268 0.5
82 1 0.025 0.236523 0.5
83 1 0.05 0.189268 0.5
84 1 0.075 0.236523 0.5
85 1 0.1 0.189268 0.5
86 1 0.125 0.236523 0.5
87 1 0.15 0.189268 0.5
88 1 0.175 0.236523 0.5
89 1 0.2 0.189268 0.5
90 1 0.225 0.236523 0.5
91 1 0.25 0.189268 0.5
92 1 0.275 0.236523 0.5
93 1 0.3 0.189268 0.5
94 1 0.325 0.236523 0.5
95 1 0.35 0.189268 0.5
96 1 0.375 0.236523 0.5
97 1 0.4 0.189268 0.5
98 1 0.425 0.236523 0.5
99 1 0.45 0.189268 0.5
100 1 0.475 0.236523 0.5
101 1 0.5 0.189268 0.5
102 1 0.525 0.236523 0.5
103 1 0.55 0.189268 0.5
104 1 0.575 0.236523 0.5
105 1 0.6 0.189268 0.5
106 1 0.625 0.236523 0.5
107 1 0.65 0.189268 0.5
108 1 0.675 0.236523 0.5
109 1 0.7 0.189268 0.5
110 1 0.725 0.236523 0.5
111 1 0.75 0.189268 0.5
112 1 0.775 0.236523 0.5
113 1 0.8 0.189268 0.5
114 1 0.825 0.236523 0.5
115 1 0.85 0.189268 0.5
116 1 0.875 0.236523 0.5
117 1 0.9 0.189268 0.5
118 1 0.925 0.236523 0.5
119 1 0.95 0.189268 0.5
120 1 0.975 0.236523 0.5
121 1 4.88777e-18 0.283782 0.5
122 1 0.025 0.331043 0.5
123 1 0.05 0.283782 0.5
124 1 0.075 0.331043 0.5
125 1 0.1 0.283782 0.5
126 1 0.125 0.331043 0.5
127 1 0.15 0.283782 0.5
128 1 0.175 0.331043 0.5
129 1 0.2 0.283782 0.5
130 1 0.225 0.331043 0.5
131 1 0.25 0.283782 0.5
132 1 0.275 0.331043 0.5
133 1 0.3 0.283782 0.5
134 1 0.325 0.331043 0.5
135 1 0.35 0.283782 0.5
136 1 0.375 0.331043 0.5
137 1 0.4 0.283782 0.5
138 1 0.425 0.331043 0.5
139 1 0.45 0.283782 0.5
140 1 0.475 0.331043 0.5
141 1 0.5 0.283782 0.5
142 1 0.525 0.331043 0.5
143 1 0.55 0.283782 0.5
144 1 0.575 0.331043 0.5
145 1 0.6 0.283782 0.5
146 1 0.625 0.331043 0.5
147 1 0.65 0.283782 0.5
148 1 0.675 0.331043 0.5
149 1 0.7 0.283782 0.5
150 1 0.725 0.331043 0.5
151 1 0.75 0.283782 0.5
152 1 0.775 0.331043 0.5
153 1 0.8 0.283782 0.5
154 1 0.825 0.331043 0.5
155 1 0.85 0.283782 0.5
156 1 0.875 0.331043 0.5
157 1 0.9 0.283782 0.5
158 1 0.925 0.331043 0.5
159 1 0.95 0.283782 0.5
160 1 0.975 0.331043 0.5
161 1 -1.0619e-18 0.378305 0.5
162 1 0.025 0.425566 0.5
163 1 0.05 0.378305 0.5
164 1 0.075 0.425566 0.5
165 1 0.1 0.378305 0.5
166 1 0.125 0.425566 0.5
167 1 0.15 0.378305 0.5
168 1 0.175 0.425566 0.5
169 1 0.2 0.378305 0.5
170 1 0.225 0.425566 0.5
171 1 0.25 0.378305 0.5
172 1 0.275 0.425566 0.5
173 1 0.3 0.378305 0.5
174 1 0.325 0.425566 0.5
175 1 0.35 0.378305 0.5
176 1 0.375 0.425566 0.5
177 1 0.4 0.378305 0.5
178 1 0.425 0.425566 0.5
179 1 0.45 0.378305 0.5
180 1 0.475 0.425566 0.5
181 1 0.5 0.378305 0.5
182 1 0.525 0.425566 0.5
183 1 0.55 0.378305 0.5
184 1 0.575 0.425566 0.5
185 1 0.6 0.378305 0.5
186 1 0.625 0.425566 0.5
187 1 0.65 0.378305 0.5
188 1 0.675 0.425566 0.5
189 1 0.7 0.378305 0.5
190 1 0.725 0.425566 0.5
191 1 0.75 0.378305 0.5
192 1 0.775 0.425566 0.5
193 1 0.8 0.378305 0.5
194 1 0.825 0.425566 0.5
195 1 0.85 0.378305 0.5
196 1 0.875 0.425566 0.5
197 1 0.9 0.378305 0.5
198 1 0.925 0.425566 0.5
199 1 0.95 0.378305 0.5
200 1 0.975 0.425566 0.5
201 1 -1.25729e-18 0.472827 0.5
202 1 0.025 0.520089 0.5
203 1 0.05 0.472827 0.5
204 1 0.075 0.520089 0.5
205 1 0.1 0.472827 0.5
206 1 0.125 0.520089 0.5
207 1 0.15 0.472827 0.5
208 1 0.175 0.520089 0.5
209 1 0.2 0.472827 0.5
210 1 0.225 0.520089 0.5
211 1 0.25 0.472827 0.5
212 1 0.275 0.520089 0.5
213 1 0.3 0.472827 0.5
214 1 0.325 0.520089 0.5
215 1 0.35 0.472827 0.5
216 1 0.375 0.520089 0.5
217 1 0.4 0.472827 0.5
218 1 0.425 0.520089 0.5
219 1 0.45 0.472827 0.5
220 1 0.475 0.520089 0.5
221 1 0.5 0.472827 0.5
222 1 0.525 0.520089 0.5
223 1 0.55 0.472827 0.5
224 1 0.575 0.520089 0.5
225 1 0.6 0.472827 0.5
226 1 0.625 0.520089 0.5
227 1 0.65 0.472827 0.5
228 1 0.675 0.520089 0.5
229 1 0.7 0.472827 0.5
230 1 0.725 0.520089 0.5
231 1 0.75 0.472827 0.5
232 1 0.775 0.520089 0.5
233 1 0.8 0.472827 0.5
234 1 0.825 0.520089 0.5
235 1 0.85 0.472827 0.5
236 1 0.875 0.520089 0.5
237 1 0.9 0.472827 0.5
238 1 0.925 0.520089 0.5
239 1 0.95 0.472827 0.5
240 1 0.975 0.520089 0.5
241 1 -1.38621e-20 0.56735 0.5
242 1 0.025 0.614611 0.5
243 1 0.05 0.56735 0.5
244 1 0.075 0.614611 0.5
245 1 0.1 0.56735 0.5
246 1 0.125 0.614611 0.5
247 1 0.15 0.56735 0.5
248 1 0.175 0.614611 0.5
249 1 0.2 0.56735 0.5
250 1 0.225 0.614611 0.5
251 1 0.25 0.56735 0.5
252 1 0.275 0.614611 0.5
253 1 0.3 0.56735 0.5
254 1 0.325 0.614611 0.5
255 1 0.35 0.56735 0.5
256 1 0.375 0.614611 0.5
257 1 0.4 0.56735 0.5
258 1 0.425 0.614611 0.5
259 1 0.45 0.56735 0.5
260 1 0.475 0.614611 0.5
261 1 0.5 0.56735 0.5
262 1 0.525 0.614611 0.5
263 1 0.55 0.56735 0.5
264 1 0.575 0.614611 0.5
265 1 0.6 0.56735 0.5
266 1 0.625 0.614611 0.5
267 1 0.65 0.56735 0.5
268 1 0.675 0.614611 0.5
269 1 0.7 0.56735 0.5
270 1 0.725 0.614611 0.5
271 1 0.75 0.56735 0.5
272 1 0.775 0.614611 0.5
273 1 0.8 0.56735 0.5
274 1 0.825 0.614611 0.5
275 1 0.85 0.56735 0.5
276 1 0.875 0.614611 0.5
277 1 0.9 0.56735 0.5
278 1 0.925 0.614611 0.5
279 1 0.95 0.56735 0.5
280 1 0.975 0.614611 0.5
281 1 2.46466e-18 0.661872 0.5
282 1 0.025 0.709132 0.5
283 1 0.05 0.661872 0.5
284 1 0.075 0.709132 0.5
285 1 0.1 0.661872 0.5
286 1 0.125 0.709132 0.5
287 1 0.15 0.661872 0.5
288 1 0.175 0.709132 0.5
289 1 0.2 0.661872 0.5
290 1 0.225 0.709132 0.5
291 1 0.25 0.661872 0.5
292 1 0.275 0.709132 0.5
293 1 0.3 0.661872 0.5
294 1 0.325 0.709132 0.5
295 1 0.35 0.661872 0.5
296 1 0.375 0.709132 0.5
297 1 0.4 0.661872 0.5
298 1 0.425 0.709132 0.5
299 1 0.45 0.661872 0.5
300 1 0.475 0.709132 0.5
301 1 0.5 0.661872 0.5
302 1 0.525 0.709132 0.5
303 1 0.55 0.661872 0.5
304 1 0.575 0.709132 0.5
305 1 0.6 0.661872 0.5
306 1 0.625 0.709132 0.5
307 1 0.65 0.661872 0.5
308 1 0.675 0.709132 0.5
309 1 0.7 0.661872 0.5
310 1 0.725 0.709132 0.5
311 1 0.75 0.661872 0.5
312 1 0.775 0.709132 0.5
313 1 0.8 0.661872 0.5
314 1 0.825 0.709132 0.5
315 1 0.85 0.661872 0.5
316 1 0.875 0.709132 0.5
317 1 0.9 0.661872 0.5
318 1 0.925 0.709132 0.5
319 1 0.95 0.661872 0.5
320 1 0.975 0.709132 0.5
321 1 1.38264e-18 0.756387 0.5
322 1 0.025 0.803636 0.5
323 1 0.05 0.756387 0.5
324 1 0.075 0.803636 0.5
325 1 0.1 0.756387 0.5
326 1 0.125 0.803636 0.5
327 1 0.15 0.756387 0.5
328 1 0.175 0.803636 0.5
329 1 0.2 0.756387 0.5
330 1 0.225 0.803636 0.5
331 1 0.25 0.756387 0.5
332 1 0.275 0.803636 0.5
333 1 0.3 0.756387 0.5
334 1 0.325 0.803636 0.5
335 1 0.35 0.756387 0.5
336 1 0.375 0.803636 0.5
337 1 0.4 0.756387 0.5
338 1 0.425 0.803636 0.5
339 1 0.45 0.756387 0.5
340 1 0.474999 0.803634 0.5
341 1 0.5 0.756386 0.5
342 1 0.524997 0.803629 0.5
343 1 0.55 0.756386 0.5
344 1 0.575003 0.80363 0.5
345 1 0.6 0.756386 0.5
346 1 0.625001 0.803635 0.5
347 1 0.65 0.756387 0.5
348 1 0.675 0.803636 0.5
349 1 0.7 0.756387 0.5
350 1 0.725 0.803636 0.5
351 1 0.75 0.756387 0.5
352 1 0.775 0.803636 0.5
353 1 0.8 0.756387 0.5
354 1 0.825 0.803636 0.5
355 1 0.85 0.756387 0.5
356 1 0.875 0.803636 0.5
357 1 0.9 0.756387 0.5
358 1 0.925 0.803636 0.5
359 1 0.95 0.756387 0.5
360 1 0.975 0.803636 0.5
361 1 6.23253e-17 0.850879 0.5
362 1 0.025 0.898121 0.5
363 1 0.05 0.850879 0.5
364 1 0.075 0.898121 0.5
365 1 0.1 0.850879 0.5
366 1 0.125 0.898121 0.5
367 1 0.15 0.850879 0.5
368 1 0.175 0.898121 0.5
369 1 0.2 0.850879 0.5
370 1 0.225 0.898121 0.5
371 1 0.25 0.850879 0.5
372 1 0.275 0.898121 0.5
373 1 0.3 0.850879 0.5
374 1 0.325 0.898121 0.5
375 1 0.35 0.850879 0.5
376 1 0.375 0.898121 0.5
377 1 0.4 0.850879 0.5
378 1 0.424994 0.898119 0.5
393 1 0.8 0.850879 0.5
394 1 0.825 0.898121 0.5
395 1 0.85 0.850879 0.5
396 1 0.875 0.898121 0.5
397 1 0.9 0.850879 0.5
398 1 0.925 0.898121 0.5
399 1 0.95 0.850879 0.5
400 1 0.975 0.898121 0.5
401 1 -2.2638e-16 0.945565 0.5
402 1 0.05 0.945565 0.5
403 1 0.1 0.945565 0.5
404 1 0.15 0.945565 0.5
405 1 0.2 0.945565 0.5
406 1 0.25 0.945565 0.5
407 1 0.3 0.945565 0.5
408 1 0.35 0.945565 0.5
409 1 0.399997 0.945565 0.5
417 1 0.8 0.945565 0.5
418 1 0.85 0.945565 0.5
419 1 0.9 0.945565 0.5
420 1 0.95 0.945565 0.5
ITEM: TIMESTEP
20
ITEM: NUMBER OF ATOMS
399
ITEM: BOX BOUNDS pp ss pp
0.0000000000000000e+00 2.2653923264628304e+01
2.1918578738844549e-01 2.0501962279681717e+01
-2.8317404080785380e-01 2.8317404080785380e-01
ITEM: ATOMS id type xs ys zs
1 2 8.07463e-18 9.67461e-05 0.5
2 2 0.025 0.0475333 0.5
3 2 0.05 9.67461e-05 0.5
4 2 0.075 0.0475333 0.5
5 2 0.1 9.67461e-05 0.5
6 2 0.125 0.0475333 0.5
7 2 0.15 9.67461e-05 0.5
8 2 0.175 0.0475333 0.5
9 2 0.2 9.67461e-05 0.5
10 2 0.225 0.0475333 0.5
11 2 0.25 9.67461e-05 0.5
12 2 0.275 0.0475333 0.5
13 2 0.3 9.67461e-05 0.5
14 2 0.325 0.0475333 0.5
15 2 0.35 9.67461e-05 0.5
16 2 0.375 0.0475333 0.5
17 2 0.4 9.67461e-05 0.5
18 2 0.425 0.0475333 0.5
19 2 0.45 9.67461e-05 0.5
20 2 0.475 0.0475333 0.5
21 2 0.5 9.67461e-05 0.5
22 2 0.525 0.0475333 0.5
23 2 0.55 9.67461e-05 0.5
24 2 0.575 0.0475333 0.5
25 2 0.6 9.67461e-05 0.5
26 2 0.625 0.0475333 0.5
27 2 0.65 9.67461e-05 0.5
28 2 0.675 0.0475333 0.5
29 2 0.7 9.67461e-05 0.5
30 2 0.725 0.0475333 0.5
31 2 0.75 9.67461e-05 0.5
32 2 0.775 0.0475333 0.5
33 2 0.8 9.67461e-05 0.5
34 2 0.825 0.0475333 0.5
35 2 0.85 9.67461e-05 0.5
36 2 0.875 0.0475333 0.5
37 2 0.9 9.67461e-05 0.5
38 2 0.925 0.0475333 0.5
39 2 0.95 9.67461e-05 0.5
40 2 0.975 0.0475333 0.5
41 2 1.06974e-17 0.0947754 0.5
42 1 0.025 0.142027 0.5
43 2 0.05 0.0947754 0.5
44 1 0.075 0.142027 0.5
45 2 0.1 0.0947754 0.5
46 1 0.125 0.142027 0.5
47 2 0.15 0.0947754 0.5
48 1 0.175 0.142027 0.5
49 2 0.2 0.0947754 0.5
50 1 0.225 0.142027 0.5
51 2 0.25 0.0947754 0.5
52 1 0.275 0.142027 0.5
53 2 0.3 0.0947754 0.5
54 1 0.325 0.142027 0.5
55 2 0.35 0.0947754 0.5
56 1 0.375 0.142027 0.5
57 2 0.4 0.0947754 0.5
58 1 0.425 0.142027 0.5
59 2 0.45 0.0947754 0.5
60 1 0.475 0.142027 0.5
61 2 0.5 0.0947754 0.5
62 1 0.525 0.142027 0.5
63 2 0.55 0.0947754 0.5
64 1 0.575 0.142027 0.5
65 2 0.6 0.0947754 0.5
66 1 0.625 0.142027 0.5
67 2 0.65 0.0947754 0.5
68 1 0.675 0.142027 0.5
69 2 0.7 0.0947754 0.5
70 1 0.725 0.142027 0.5
71 2 0.75 0.0947754 0.5
72 1 0.775 0.142027 0.5
73 2 0.8 0.0947754 0.5
74 1 0.825 0.142027 0.5
75 2 0.85 0.0947754 0.5
76 1 0.875 0.142027 0.5
77 2 0.9 0.0947754 0.5
78 1 0.925 0.142027 0.5
79 2 0.95 0.0947754 0.5
80 1 0.975 0.142027 0.5
81 1 5.79819e-18 0.18928 0.5
82 1 0.025 0.236534 0.5
83 1 0.05 0.18928 0.5
84 1 0.075 0.236534 0.5
85 1 0.1 0.18928 0.5
86 1 0.125 0.236534 0.5
87 1 0.15 0.18928 0.5
88 1 0.175 0.236534 0.5
89 1 0.2 0.18928 0.5
90 1 0.225 0.236534 0.5
91 1 0.25 0.18928 0.5
92 1 0.275 0.236534 0.5
93 1 0.3 0.18928 0.5
94 1 0.325 0.236534 0.5
95 1 0.35 0.18928 0.5
96 1 0.375 0.236534 0.5
97 1 0.4 0.18928 0.5
98 1 0.425 0.236534 0.5
99 1 0.45 0.18928 0.5
100 1 0.475 0.236534 0.5
101 1 0.5 0.18928 0.5
102 1 0.525 0.236534 0.5
103 1 0.55 0.18928 0.5
104 1 0.575 0.236534 0.5
105 1 0.6 0.18928 0.5
106 1 0.625 0.236534 0.5
107 1 0.65 0.18928 0.5
108 1 0.675 0.236534 0.5
109 1 0.7 0.18928 0.5
110 1 0.725 0.236534 0.5
111 1 0.75 0.18928 0.5
112 1 0.775 0.236534 0.5
113 1 0.8 0.18928 0.5
114 1 0.825 0.236534 0.5
115 1 0.85 0.18928 0.5
116 1 0.875 0.236534 0.5
117 1 0.9 0.18928 0.5
118 1 0.925 0.236534 0.5
119 1 0.95 0.18928 0.5
120 1 0.975 0.236534 0.5
121 1 -2.04692e-17 0.28379 0.5
122 1 0.025 0.331048 0.5
123 1 0.05 0.28379 0.5
124 1 0.075 0.331048 0.5
125 1 0.1 0.28379 0.5
126 1 0.125 0.331048 0.5
127 1 0.15 0.28379 0.5
128 1 0.175 0.331048 0.5
129 1 0.2 0.28379 0.5
130 1 0.225 0.331048 0.5
131 1 0.25 0.28379 0.5
132 1 0.275 0.331048 0.5
133 1 0.3 0.28379 0.5
134 1 0.325 0.331048 0.5
135 1 0.35 0.28379 0.5
136 1 0.375 0.331048 0.5
137 1 0.4 0.28379 0.5
138 1 0.425 0.331048 0.5
139 1 0.45 0.28379 0.5
140 1 0.475 0.331048 0.5
141 1 0.5 0.28379 0.5
142 1 0.525 0.331048 0.5
143 1 0.55 0.28379 0.5
144 1 0.575 0.331048 0.5
145 1 0.6 0.28379 0.5
146 1 0.625 0.331048 0.5
147 1 0.65 0.28379 0.5
148 1 0.675 0.331048 0.5
149 1 0.7 0.28379 0.5
150 1 0.725 0.331048 0.5
151 1 0.75 0.28379 0.5
152 1 0.775 0.331048 0.5
153 1 0.8 0.28379 0.5
154 1 0.825 0.331048 0.5
155 1 0.85 0.28379 0.5
156 1 0.875 0.331048 0.5
157 1 0.9 0.28379 0.5
158 1 0.925 0.331048 0.5
159 1 0.95 0.28379 0.5
160 1 0.975 0.331048 0.5
161 1 1.23482e-14 0.378307 0.5
162 1 0.025 0.425567 0.5
163 1 0.05 0.378307 0.5
164 1 0.075 0.425567 0.5
165 1 0.1 0.378307 0.5
166 1 0.125 0.425567 0.5
167 1 0.15 0.378307 0.5
168 1 0.175 0.425567 0.5
169 1 0.2 0.378307 0.5
170 1 0.225 0.425567 0.5
171 1 0.25 0.378307 0.5
172 1 0.275 0.425567 0.5
173 1 0.3 0.378307 0.5
174 1 0.325 0.425567 0.5
175 1 0.35 0.378307 0.5
176 1 0.375 0.425567 0.5
177 1 0.4 0.378307 0.5
178 1 0.425 0.425567 0.5
179 1 0.45 0.378307 0.5
180 1 0.475 0.425567 0.5
181 1 0.5 0.378307 0.5
182 1 0.525 0.425567 0.5
183 1 0.55 0.378307 0.5
184 1 0.575 0.425567 0.5
185 1 0.6 0.378307 0.5
186 1 0.625 0.425567 0.5
187 1 0.65 0.378307 0.5
188 1 0.675 0.425567 0.5
189 1 0.7 0.378307 0.5
190 1 0.725 0.425567 0.5
191 1 0.75 0.378307 0.5
192 1 0.775 0.425567 0.5
193 1 0.8 0.378307 0.5
194 1 0.825 0.425567 0.5
195 1 0.85 0.378307 0.5
196 1 0.875 0.425567 0.5
197 1 0.9 0.378307 0.5
198 1 0.925 0.425567 0.5
199 1 0.95 0.378307 0.5
200 1 0.975 0.425567 0.5
201 1 1.42146e-12 0.472827 0.5
202 1 0.025 0.520088 0.5
203 1 0.05 0.472827 0.5
204 1 0.075 0.520088 0.5
205 1 0.1 0.472827 0.5
206 1 0.125 0.520088 0.5
207 1 0.15 0.472827 0.5
208 1 0.175 0.520088 0.5
209 1 0.2 0.472827 0.5
210 1 0.225 0.520088 0.5
211 1 0.25 0.472827 0.5
212 1 0.275 0.520088 0.5
213 1 0.3 0.472827 0.5
214 1 0.325 0.520088 0.5
215 1 0.35 0.472827 0.5
216 1 0.375 0.520088 0.5
217 1 0.4 0.472827 0.5
218 1 0.425 0.520088 0.5
219 1 0.45 0.472827 0.5
220 1 0.475 0.520088 0.5
221 1 0.5 0.472827 0.5
222 1 0.525 0.520088 0.5
223 1 0.55 0.472827 0.5
224 1 0.575 0.520088 0.5
225 1 0.6 0.472827 0.5
226 1 0.625 0.520088 0.5
227 1 0.65 0.472827 0.5
228 1 0.675 0.520088 0.5
229 1 0.7 0.472827 0.5
230 1 0.725 0.520088 0.5
231 1 0.75 0.472827 0.5
232 1 0.775 0.520088 0.5
233 1 0.8 0.472827 0.5
234 1 0.825 0.520088 0.5
235 1 0.85 0.472827 0.5
236 1 0.875 0.520088 0.5
237 1 0.9 0.472827 0.5
238 1 0.925 0.520088 0.5
239 1 0.95 0.472827 0.5
240 1 0.975 0.520088 0.5
241 1 1.91608e-11 0.567348 0.5
242 1 0.025 0.614607 0.5
243 1 0.05 0.567348 0.5
244 1 0.075 0.614607 0.5
245 1 0.1 0.567348 0.5
246 1 0.125 0.614607 0.5
247 1 0.15 0.567348 0.5
248 1 0.175 0.614607 0.5
249 1 0.2 0.567348 0.5
250 1 0.225 0.614607 0.5
251 1 0.25 0.567348 0.5
252 1 0.275 0.614607 0.5
253 1 0.3 0.567348 0.5
254 1 0.325 0.614607 0.5
255 1 0.35 0.567348 0.5
256 1 0.375 0.614607 0.5
257 1 0.4 0.567348 0.5
258 1 0.425 0.614607 0.5
259 1 0.45 0.567348 0.5
260 1 0.475 0.614607 0.5
261 1 0.5 0.567348 0.5
262 1 0.525 0.614608 0.5
263 1 0.55 0.567348 0.5
264 1 0.575 0.614608 0.5
265 1 0.6 0.567348 0.5
266 1 0.625 0.614608 0.5
267 1 0.65 0.567348 0.5
268 1 0.675 0.614608 0.5
269 1 0.7 0.567348 0.5
270 1 0.725 0.614608 0.5
271 1 0.75 0.567348 0.5
272 1 0.775 0.614608 0.5
273 1 0.8 0.567348 0.5
274 1 0.825 0.614607 0.5
275 1 0.85 0.567348 0.5
276 1 0.875 0.614607 0.5
277 1 0.9 0.567348 0.5
278 1 0.925 0.614607 0.5
279 1 0.95 0.567348 0.5
280 1 0.975 0.614607 0.5
281 1 -3.58062e-10 0.661864 0.5
282 1 0.025 0.70912 0.5
283 1 0.05 0.661864 0.5
284 1 0.075 0.70912 0.5
285 1 0.1 0.661864 0.5
286 1 0.125 0.70912 0.5
287 1 0.15 0.661864 0.5
288 1 0.175 0.70912 0.5
289 1 0.2 0.661864 0.5
290 1 0.225 0.70912 0.5
291 1 0.25 0.661864 0.5
292 1 0.275 0.70912 0.5
293 1 0.3 0.661864 0.5
294 1 0.324999 0.709119 0.5
295 1 0.35 0.661863 0.5
296 1 0.374999 0.709117 0.5
297 1 0.4 0.661864 0.5
298 1 0.425002 0.70912 0.5
299 1 0.450001 0.661865 0.5
300 1 0.475005 0.709125 0.5
301 1 0.500002 0.661867 0.5
302 1 0.525006 0.709132 0.5
303 1 0.550001 0.661869 0.5
304 1 0.575004 0.709136 0.5
305 1 0.600001 0.66187 0.5
306 1 0.625001 0.709138 0.5
307 1 0.65 0.66187 0.5
308 1 0.674997 0.709138 0.5
309 1 0.699999 0.66187 0.5
310 1 0.724995 0.709134 0.5
311 1 0.749999 0.661868 0.5
312 1 0.774995 0.709129 0.5
313 1 0.799999 0.661867 0.5
314 1 0.824998 0.709123 0.5
315 1 0.85 0.661865 0.5
316 1 0.874999 0.70912 0.5
317 1 0.9 0.661865 0.5
318 1 0.925 0.70912 0.5
319 1 0.95 0.661864 0.5
320 1 0.975 0.70912 0.5
321 1 -6.02526e-09 0.756373 0.5
322 1 0.025 0.803624 0.5
323 1 0.05 0.756373 0.5
324 1 0.075 0.803624 0.5
325 1 0.1 0.756373 0.5
326 1 0.125 0.803624 0.5
327 1 0.15 0.756373 0.5
328 1 0.175 0.803624 0.5
329 1 0.2 0.756373 0.5
330 1 0.225 0.803624 0.5
331 1 0.25 0.756373 0.5
332 1 0.274999 0.803623 0.5
333 1 0.299999 0.756372 0.5
334 1 0.324996 0.803621 0.5
335 1 0.349997 0.756369 0.5
336 1 0.374992 0.803613 0.5
337 1 0.399998 0.756365 0.5
338 1 0.424994 0.803604 0.5
339 1 0.450008 0.756376 0.5
340 1 0.475022 0.803639 0.5
341 1 0.500014 0.75639 0.5
342 1 0.525029 0.803671 0.5
343 1 0.550018 0.756412 0.5
344 1 0.575039 0.803726 0.5
345 1 0.600008 0.75642 0.5
346 1 0.625001 0.803742 0.5
347 1 0.649993 0.756422 0.5
348 1 0.674973 0.803724 0.5
349 1 0.699987 0.756413 0.5
350 1 0.724948 0.803709 0.5
351 1 0.749982 0.756403 0.5
352 1 0.774974 0.803652 0.5
353 1 0.799992 0.756383 0.5
354 1 0.824992 0.803631 0.5
355 1 0.849998 0.756375 0.5
356 1 0.874998 0.803626 0.5
357 1 0.899999 0.756373 0.5
358 1 0.925 0.803625 0.5
359 1 0.95 0.756373 0.5
360 1 0.975 0.803624 0.5
361 1 -2.82633e-08 0.850874 0.5
362 1 0.025 0.898126 0.5
363 1 0.05 0.850874 0.5
364 1 0.075 0.898126 0.5
365 1 0.1 0.850874 0.5
366 1 0.125 0.898126 0.5
367 1 0.15 0.850874 0.5
368 1 0.175 0.898126 0.5
369 1 0.2 0.850874 0.5
370 1 0.224999 0.898125 0.5
371 1 0.249999 0.850874 0.5
372 1 0.274997 0.898125 0.5
373 1 0.299996 0.850872 0.5
374 1 0.324989 0.898122 0.5
375 1 0.349989 0.850865 0.5
376 1 0.374967 0.898109 0.5
377 1 0.399977 0.850846 0.5
378 1 0.42492 0.898077 0.5
393 1 0.799977 0.850888 0.5
394 1 0.824985 0.898129 0.5
395 1 0.849994 0.850877 0.5
396 1 0.874996 0.898126 0.5
397 1 0.899999 0.850875 0.5
398 1 0.924999 0.898126 0.5
399 1 0.95 0.850874 0.5
400 1 0.975 0.898126 0.5
401 1 -6.51843e-08 0.945576 0.5
402 1 0.05 0.945576 0.5
403 1 0.1 0.945576 0.5
404 1 0.15 0.945576 0.5
405 1 0.2 0.945576 0.5
406 1 0.249998 0.945576 0.5
407 1 0.299991 0.945577 0.5
408 1 0.349969 0.945575 0.5
409 1 0.399906 0.945566 0.5
417 1 0.79997 0.945577 0.5
418 1 0.84999 0.945575 0.5