ITEM: TIMESTEP
0
ITEM: NUMBER OF ATOMS
21
ITEM: BOX BOUNDS pp ss pp
0.0000000000000000e+00 2.2653923264628304e+01
2.1918578738844549e-01 1.9399687255162966e+01
-2.8317404080785380e-01 2.8317404080785380e-01
ITEM: ATOMS id type xs ys zs
379 3 0.45 0.899778 0.5
380 3 0.475 0.949735 0.5
381 3 0.5 0.899778 0.5
382 3 0.525 0.949735 0.5
383 3 0.55 0.899778 0.5
384 3 0.575 0.949735 0.5
385 3 0.6 0.899778 0.5
386 3 0.625 0.949735 0.5
387 3 0.65 0.899778 0.5
388 3 0.675 0.949735 0.5
389 3 0.7 0.899778 0.5
390 3 0.725 0.949735 0.5
391 3 0.75 0.899778 0.5
392 3 0.775 0.949735 0.5
410 3 0.45 0.999898 0.5
411 3 0.5 0.999898 0.5
412 3 0.55 0.999898 0.5
413 3 0.6 0.999898 0.5
414 3 0.65 0.999898 0.5
415 3 0.7 0.999898 0.5
416 3 0.75 0.999898 0.5
ITEM: TIMESTEP
10
ITEM: NUMBER OF ATOMS
21
ITEM: BOX BOUNDS pp ss pp
0.0000000000000000e+00 2.2653923264628304e+01
2.1918578738844549e-01 1.9399687255162966e+01
-2.8317404080785380e-01 2.8317404080785380e-01
ITEM: ATOMS id type xs ys zs
379 3 0.45 0.899778 0.5
380 3 0.475 0.949735 0.5
381 3 0.5 0.899778 0.5
382 3 0.525 0.949735 0.5
383 3 0.55 0.899778 0.5
384 3 0.575 0.949735 0.5
385 3 0.6 0.899778 0.5
386 3 0.625 0.949735 0.5
387 3 0.65 0.899778 0.5
388 3 0.675 0.949735 0.5
389 3 0.7 0.899778 0.5
390 3 0.725 0.949735 0.5
391 3 0.75 0.899778 0.5
392 3 0.775 0.949735 0.5
410 3 0.45 0.999905 0.5
411 3 0.5 0.999905 0.5
412 3 0.55 0.999905 0.5
413 3 0.6 0.999905 0.5
414 3 0.65 0.999905 0.5
415 3 0.7 0.999905 0.5
416 3 0.75 0.999905 0.5
ITEM: TIMESTEP
20
ITEM: NUMBER OF ATOMS
21
ITEM: BOX BOUNDS pp ss pp
0.0000000000000000e+00 2.2653923264628304e+01
2.1918578738844549e-01 1.9399687255162966e+01
-2.8317404080785380e-01 2.8317404080785380e-01
ITEM: ATOMS id type xs ys zs
379 3 0.45 0.899773 0.5
380 3 0.475 0.94974 0.5
381 3 0.5 0.899773 0.5
382 3 0.525 0.94974 0.5
383 3 0.55 0.899773 0.5
384 3 0.575 0.94974 0.5
385 3 0.6 0.899773 0.5
386 3 0.625 0.94974 0.5
387 3 0.65 0.899773 0.5
388 3 0.675 0.94974 0.5
389 3 0.7 0.899773 0.5
390 3 0.725 0.94974 0.5
391 3 0.75 0.899773 0.5
392 3 0.775 0.94974 0.5
410 3 0.45 0.999917 0.5
411 3 0.5 0.999917 0.5
412 3 0.55 0.999917 0.5
413 3 0.6 0.999917 0.5
414 3 0.65 0.999917 0.5
415 3 0.7 0.999917 0.5
416 3 0.75 0.999917 0.5
ITEM: TIMESTEP
30
ITEM: NUMBER OF ATOMS
21
ITEM: BOX BOUNDS pp ss pp
0.0000000000000000e+00 2.2653923264628304e+01
2.1918578738844549e-01 1.9399687255162966e+01
-2.8317404080785380e-01 2.8317404080785380e-01
ITEM: ATOMS id type xs ys zs
379 3 0.45 0.899768 0.5
380 3 0.475 0.949737 0.5
381 3 0.5 0.899768 0.5
382 3 0.525 0.949737 0.5
383 3 0.55 0.899768 0.5
384 3 0.575 0.949737 0.5
385 3 0.6 0.899768 0.5
386 3 0.625 0.949737 0.5
387 3 0.65 0.899768 0.5
388 3 0.675 0.949737 0.5
389 3 0.7 0.899768 0.5
390 3 0.725 0.949737 0.5
391 3 0.75 0.899768 0.5
392 3 0.775 0.949737 0.5
410 3 0.45 0.999916 0.5
411 3 0.5 0.999916 0.5
412 3 0.55 0.999916 0.5
413 3 0.6 0.999916 0.5
414 3 0.65 0.999916 0.5
415 3 0.7 0.999916 0.5
416 3 0.75 0.999916 0.5
ITEM: TIMESTEP
40
ITEM: NUMBER OF ATOMS
21
ITEM: BOX BOUNDS pp ss pp
0.0000000000000000e+00 2.2653923264628304e+01
2.1918578738844549e-01 1.9399687255162966e+01
-2.8317404080785380e-01 2.8317404080785380e-01
ITEM: ATOMS id type xs ys zs
379 3 0.45 0.899763 0.5
380 3 0.475 0.949732 0.5
381 3 0.5 0.899763 0.5
382 3 0.525 0.949732 0.5
383 3 0.55 0.899763 0.5
384 3 0.575 0.949732 0.5
385 3 0.6 0.899763 0.5
386 3 0.625 0.949732 0.5
387 3 0.65 0.899763 0.5
388 3 0.675 0.949732 0.5
389 3 0.7 0.899763 0.5
390 3 0.725 0.949732 0.5
391 3 0.75 0.899763 0.5
392 3 0.775 0.949732 0.5
410 3 0.45 0.999911 0.5
411 3 0.5 0.999911 0.5
412 3 0.55 0.999911 0.5
413 3 0.6 0.999911 0.5
414 3 0.65 0.999911 0.5
415 3 0.7 0.999911 0.5
416 3 0.75 0.999911 0.5
ITEM: TIMESTEP
50
ITEM: NUMBER OF ATOMS
21
ITEM: BOX BOUNDS pp ss pp
0.0000000000000000e+00 2.2653923264628304e+01
2.1918578738844549e-01 1.9399687255162966e+01
-2.8317404080785380e-01 2.8317404080785380e-01
ITEM: ATOMS id type xs ys zs
379 3 0.45 0.899757 0.5
380 3 0.475 0.949726 0.5
381 3 0.5 0.899757 0.5
382 3 0.525 0.949726 0.5
383 3 0.55 0.899757 0.5
384 3 0.575 0.949726 0.5
385 3 0.6 0.899757 0.5
386 3 0.625 0.949726 0.5
387 3 0.65 0.899757 0.5
388 3 0.675 0.949726 0.5
389 3 0.7 0.899757 0.5
390 3 0.725 0.949726 0.5
391 3 0.75 0.899757 0.5
392 3 0.775 0.949726 0.5
410 3 0.45 0.999905 0.5
411 3 0.5 0.999905 0.5
412 3 0.55 0.999905 0.5
413 3 0.6 0.999905 0.5
414 3 0.65 0.999905 0.5
415 3 0.7 0.999905 0.5
416 3 0.75 0.999905 0.5
ITEM: TIMESTEP
60
ITEM: NUMBER OF ATOMS
21
ITEM: BOX BOUNDS pp ss pp
0.0000000000000000e+00 2.2653923264628304e+01
2.1918578738844549e-01 1.9399687255162966e+01
-2.8317404080785380e-01 2.8317404080785380e-01
ITEM: ATOMS id type xs ys zs
379 3 0.45 0.899752 0.5
380 3 0.475 0.949721 0.5
381 3 0.5 0.899752 0.5
382 3 0.525 0.949721 0.5
383 3 0.55 0.899752 0.5
384 3 0.575 0.949721 0.5
385 3 0.6 0.899752 0.5
386 3 0.625 0.949721 0.5
387 3 0.65 0.899752 0.5
388 3 0.675 0.949721 0.5
389 3 0.7 0.899752 0.5
390 3 0.725 0.949721 0.5
391 3 0.75 0.899752 0.5
392 3 0.775 0.949721 0.5
410 3 0.45 0.9999 0.5
411 3 0.5 0.9999 0.5
412 3 0.55 0.9999 0.5
413 3 0.6 0.9999 0.5
414 3 0.65 0.9999 0.5
415 3 0.7 0.9999 0.5
416 3 0.75 0.9999 0.5
ITEM: TIMESTEP
70
ITEM: NUMBER OF ATOMS
21
ITEM: BOX BOUNDS pp ss pp
0.0000000000000000e+00 2.2653923264628304e+01
2.1918578738844549e-01 1.9399687255162966e+01
-2.8317404080785380e-01 2.8317404080785380e-01
ITEM: ATOMS id type xs ys zs
379 3 0.45 0.899748 0.5
380 3 0.475 0.949717 0.5
381 3 0.5 0.899748 0.5
382 3 0.525 0.949717 0.5
383 3 0.55 0.899748 0.5
384 3 0.575 0.949717 0.5
385 3 0.6 0.899748 0.5
386 3 0.625 0.949717 0.5
387 3 0.65 0.899748 0.5
388 3 0.675 0.949717 0.5
389 3 0.7 0.899748 0.5
390 3 0.725 0.949717 0.5
391 3 0.75 0.899748 0.5
392 3 0.775 0.949717 0.5
410 3 0.45 0.999896 0.5
411 3 0.5 0.999896 0.5
412 3 0.55 0.999896 0.5
413 3 0.6 0.999896 0.5
414 3 0.65 0.999896 0.5
415 3 0.7 0.999896 0.5
416 3 0.75 0.999896 0.5
ITEM: TIMESTEP
80
ITEM: NUMBER OF ATOMS
21
ITEM: BOX BOUNDS pp ss pp
0.0000000000000000e+00 2.2653923264628304e+01
2.1918578738844549e-01 1.9399687255162966e+01
-2.8317404080785380e-01 2.8317404080785380e-01
ITEM: ATOMS id type xs ys zs
379 3 0.45 0.899744 0.5
380 3 0.475 0.949713 0.5
381 3 0.5 0.899744 0.5
382 3 0.525 0.949713 0.5
383 3 0.55 0.899744 0.5
384 3 0.575 0.949713 0.5
385 3 0.6 0.899744 0.5
386 3 0.625 0.949713 0.5
387 3 0.65 0.899744 0.5
388 3 0.675 0.949713 0.5
389 3 0.7 0.899744 0.5
390 3 0.725 0.949713 0.5
391 3 0.75 0.899744 0.5
392 3 0.775 0.949713 0.5
410 3 0.45 0.999891 0.5
411 3 0.5 0.999891 0.5
412 3 0.55 0.999891 0.5
413 3 0.6 0.999891 0.5
414 3 0.65 0.999891 0.5
415 3 0.7 0.999891 0.5
416 3 0.75 0.999891 0.5
ITEM: TIMESTEP
87
ITEM: NUMBER OF ATOMS
21
ITEM: BOX BOUNDS pp ss pp
0.0000000000000000e+00 2.2653923264628304e+01
2.1918578738844549e-01 1.9399687255162966e+01
-2.8317404080785380e-01 2.8317404080785380e-01
ITEM: ATOMS id type xs ys zs
379 3 0.45 0.899742 0.5
380 3 0.475 0.94971 0.5
381 3 0.5 0.899742 0.5
382 3 0.525 0.94971 0.5
383 3 0.55 0.899742 0.5
384 3 0.575 0.94971 0.5
385 3 0.6 0.899742 0.5
386 3 0.625 0.94971 0.5
387 3 0.65 0.899742 0.5
388 3 0.675 0.94971 0.5
389 3 0.7 0.899742 0.5
390 3 0.725 0.94971 0.5
391 3 0.75 0.899742 0.5
392 3 0.775 0.94971 0.5
410 3 0.45 0.999889 0.5
411 3 0.5 0.999889 0.5
412 3 0.55 0.999889 0.5
413 3 0.6 0.999889 0.5
414 3 0.65 0.999889 0.5
415 3 0.7 0.999889 0.5
416 3 0.75 0.999889 0.5
ITEM: TIMESTEP
90
ITEM: NUMBER OF ATOMS
21
ITEM: BOX BOUNDS pp ss pp
0.0000000000000000e+00 2.2653923264628304e+01
2.1918578738844549e-01 1.9399522951178316e+01
-2.8317404080785380e-01 2.8317404080785380e-01
ITEM: ATOMS id type xs ys zs
379 3 0.45 0.899749 0.5
380 3 0.475 0.949718 0.5
381 3 0.5 0.899749 0.5
382 3 0.525 0.949718 0.5
383 3 0.55 0.899749 0.5
384 3 0.575 0.949718 0.5
385 3 0.6 0.899749 0.5
386 3 0.625 0.949718 0.5
387 3 0.65 0.899749 0.5
388 3 0.675 0.949718 0.5
389 3 0.7 0.899749 0.5
390 3 0.725 0.949718 0.5
391 3 0.75 0.899749 0.5
392 3 0.775 0.949718 0.5
410 3 0.45 0.999897 0.5
411 3 0.5 0.999897 0.5
412 3 0.55 0.999897 0.5
413 3 0.6 0.999897 0.5
414 3 0.65 0.999897 0.5
415 3 0.7 0.999897 0.5
416 3 0.75 0.999897 0.5
ITEM: TIMESTEP
100
ITEM: NUMBER OF ATOMS
21
ITEM: BOX BOUNDS pp ss pp
0.0000000000000000e+00 2.2653923264628304e+01
2.1918578738844549e-01 1.9399522951178316e+01
-2.8317404080785380e-01 2.8317404080785380e-01
ITEM: ATOMS id type xs ys zs
379 3 0.45 0.899744 0.5
380 3 0.475 0.949713 0.5
381 3 0.5 0.899744 0.5
382 3 0.525 0.949713 0.5
383 3 0.55 0.899744 0.5
384 3 0.575 0.949713 0.5
385 3 0.6 0.899744 0.5
386 3 0.625 0.949713 0.5
387 3 0.65 0.899744 0.5
388 3 0.675 0.949713 0.5
389 3 0.7 0.899744 0.5
390 3 0.725 0.949713 0.5
391 3 0.75 0.899744 0.5
392 3 0.775 0.949713 0.5
410 3 0.45 0.999892 0.5
411 3 0.5 0.999892 0.5
412 3 0.55 0.999892 0.5
413 3 0.6 0.999892 0.5
414 3 0.65 0.999892 0.5
415 3 0.7 0.999892 0.5
416 3 0.75 0.999892 0.5
ITEM: TIMESTEP
110
ITEM: NUMBER OF ATOMS
21
ITEM: BOX BOUNDS pp ss pp
0.0000000000000000e+00 2.2653923264628304e+01
2.1918578738844549e-01 1.9399522951178316e+01
-2.8317404080785380e-01 2.8317404080785380e-01
ITEM: ATOMS id type xs ys zs
379 3 0.45 0.899741 0.5
380 3 0.475 0.94971 0.5
381 3 0.5 0.899741 0.5
382 3 0.525 0.94971 0.5
383 3 0.55 0.899741 0.5
384 3 0.575 0.94971 0.5
385 3 0.6 0.899741 0.5
386 3 0.625 0.94971 0.5
387 3 0.65 0.899741 0.5
388 3 0.675 0.94971 0.5
389 3 0.7 0.899741 0.5
390 3 0.725 0.94971 0.5
391 3 0.75 0.899741 0.5
392 3 0.775 0.94971 0.5
410 3 0.45 0.999889 0.5
411 3 0.5 0.999889 0.5
412 3 0.55 0.999889 0.5
413 3 0.6 0.999889 0.5
414 3 0.65 0.999889 0.5
415 3 0.7 0.999889 0.5
416 3 0.75 0.999889 0.5
ITEM: TIMESTEP
120
ITEM: NUMBER OF ATOMS
21
ITEM: BOX BOUNDS pp ss pp
0.0000000000000000e+00 2.2653923264628304e+01
2.1918578738844549e-01 1.9399522951178316e+01
-2.8317404080785380e-01 2.8317404080785380e-01
ITEM: ATOMS id type xs ys zs
379 3 0.45 0.899737 0.5
380 3 0.475 0.949706 0.5
381 3 0.5 0.899737 0.5
382 3 0.525 0.949706 0.5
383 3 0.55 0.899737 0.5
384 3 0.575 0.949706 0.5
385 3 0.6 0.899737 0.5
386 3 0.625 0.949706 0.5
387 3 0.65 0.899737 0.5
388 3 0.675 0.949706 0.5
389 3 0.7 0.899737 0.5
390 3 0.725 0.949706 0.5
391 3 0.75 0.899737 0.5
392 3 0.775 0.949706 0.5
410 3 0.45 0.999885 0.5
411 3 0.5 0.999885 0.5
412 3 0.55 0.999885 0.5
413 3 0.6 0.999885 0.5
414 3 0.65 0.999885 0.5
415 3 0.7 0.999885 0.5
416 3 0.75 0.999885 0.5
ITEM: TIMESTEP
124
ITEM: NUMBER OF ATOMS
21
ITEM: BOX BOUNDS pp ss pp
0.0000000000000000e+00 2.2653923264628304e+01
2.1918578738844549e-01 1.9399522951178316e+01
-2.8317404080785380e-01 2.8317404080785380e-01
ITEM: ATOMS id type xs ys zs
379 3 0.45 0.899736 0.5
380 3 0.475 0.949705 0.5
381 3 0.5 0.899736 0.5
382 3 0.525 0.949705 0.5
383 3 0.55 0.899736 0.5
384 3 0.575 0.949705 0.5
385 3 0.6 0.899736 0.5
386 3 0.625 0.949705 0.5
387 3 0.65 0.899736 0.5
388 3 0.675 0.949705 0.5
389 3 0.7 0.899736 0.5
390 3 0.725 0.949705 0.5
391 3 0.75 0.899736 0.5
392 3 0.775 0.949705 0.5
410 3 0.45 0.999884 0.5
411 3 0.5 0.999884 0.5
412 3 0.55 0.999884 0.5
413 3 0.6 0.999884 0.5
414 3 0.65 0.999884 0.5
415 3 0.7 0.999884 0.5
416 3 0.75 0.999884 0.5
