ITEM: TIMESTEP
1
ITEM: NUMBER OF ATOMS
420
ITEM: BOX BOUNDS
0.0 22.653923264628304
0.2191857873884455 19.399522951178316
-0.2831740408078538 0.2831740408078538
ITEM: ATOMS id type x y z 
379 3 10.194265469082737 17.47642562578809 0.0 
380 3 10.760613550698444 18.434847893525504 0.0 
381 3 11.326961632314152 17.47642562578809 0.0 
382 3 11.89330971392986 18.434847893525504 0.0 
383 3 12.459657795545569 17.47642562578809 0.0 
384 3 13.026005877161273 18.434847893525504 0.0 
385 3 13.592353958776982 17.47642562578809 0.0 
386 3 14.15870204039269 18.434847893525504 0.0 
387 3 14.725050122008398 17.47642562578809 0.0 
388 3 15.291398203624107 18.434847893525504 0.0 
389 3 15.857746285239811 17.47642562578809 0.0 
390 3 16.42409436685552 18.434847893525504 0.0 
391 3 16.990442448471228 17.47642562578809 0.0 
392 3 17.556790530086936 18.434847893525504 0.0 
410 3 10.194265469082737 19.397298032067315 0.0 
411 3 11.326961632314152 19.397298032067315 0.0 
412 3 12.459657795545569 19.397298032067315 0.0 
413 3 13.592353958776982 19.397298032067315 0.0 
414 3 14.725050122008398 19.397298032067315 0.0 
415 3 15.857746285239811 19.397298032067315 0.0 
416 3 16.990442448471228 19.397298032067315 0.0 
1 2 1.8292204841026564e-16 0.22114807014266133 0.0 
2 2 0.5663480816157076 1.183293107061209 0.0 
3 2 1.1326961632314152 0.22114807014266133 0.0 
4 2 1.6990442448471228 1.183293107061209 0.0 
5 2 2.2653923264628304 0.22114807014266133 0.0 
6 2 2.831740408078538 1.183293107061209 0.0 
7 2 3.3980884896942456 0.22114807014266133 0.0 
8 2 3.9644365713099528 1.183293107061209 0.0 
9 2 4.530784652925661 0.22114807014266133 0.0 
10 2 5.097132734541368 1.183293107061209 0.0 
11 2 5.663480816157076 0.22114807014266133 0.0 
12 2 6.2298288977727845 1.183293107061209 0.0 
13 2 6.796176979388491 0.22114807014266133 0.0 
14 2 7.362525061004199 1.183293107061209 0.0 
15 2 7.9288731426199055 0.22114807014266133 0.0 
16 2 8.495221224235614 1.183293107061209 0.0 
17 2 9.061569305851322 0.22114807014266133 0.0 
18 2 9.62791738746703 1.183293107061209 0.0 
19 2 10.194265469082737 0.22114807014266133 0.0 
20 2 10.760613550698444 1.183293107061209 0.0 
21 2 11.326961632314152 0.22114807014266133 0.0 
22 2 11.89330971392986 1.183293107061209 0.0 
23 2 12.459657795545569 0.22114807014266133 0.0 
24 2 13.026005877161273 1.183293107061209 0.0 
25 2 13.592353958776982 0.22114807014266133 0.0 
26 2 14.15870204039269 1.183293107061209 0.0 
27 2 14.725050122008398 0.22114807014266133 0.0 
28 2 15.291398203624107 1.183293107061209 0.0 
29 2 15.857746285239811 0.22114807014266133 0.0 
30 2 16.42409436685552 1.183293107061209 0.0 
31 2 16.990442448471228 0.22114807014266133 0.0 
32 2 17.556790530086936 1.183293107061209 0.0 
33 2 18.123138611702643 0.22114807014266133 0.0 
34 2 18.68948669331835 1.183293107061209 0.0 
35 2 19.25583477493406 0.22114807014266133 0.0 
36 2 19.822182856549766 1.183293107061209 0.0 
37 2 20.388530938165474 0.22114807014266133 0.0 
38 2 20.95487901978118 1.183293107061209 0.0 
39 2 21.52122710139689 0.22114807014266133 0.0 
40 2 22.087575183012596 1.183293107061209 0.0 
41 2 2.423380787310348e-16 2.141496718954958 0.0 
42 1 0.5663480816157076 3.0999573473667015 0.0 
43 2 1.1326961632314152 2.141496718954958 0.0 
44 1 1.6990442448471228 3.0999573473667015 0.0 
45 2 2.2653923264628304 2.141496718954958 0.0 
46 1 2.831740408078538 3.0999573473667015 0.0 
47 2 3.3980884896942456 2.141496718954958 0.0 
48 1 3.9644365713099528 3.0999573473667015 0.0 
49 2 4.530784652925661 2.141496718954958 0.0 
50 1 5.097132734541368 3.0999573473667015 0.0 
51 2 5.663480816157076 2.141496718954958 0.0 
52 1 6.2298288977727845 3.0999573473667015 0.0 
53 2 6.796176979388491 2.141496718954958 0.0 
54 1 7.362525061004199 3.0999573473667015 0.0 
55 2 7.9288731426199055 2.141496718954958 0.0 
56 1 8.495221224235614 3.0999573473667015 0.0 
57 2 9.061569305851322 2.141496718954958 0.0 
58 1 9.62791738746703 3.0999573473667015 0.0 
59 2 10.194265469082737 2.141496718954958 0.0 
60 1 10.760613550698444 3.0999573473667015 0.0 
61 2 11.326961632314152 2.141496718954958 0.0 
62 1 11.89330971392986 3.0999573473667015 0.0 
63 2 12.459657795545569 2.141496718954958 0.0 
64 1 13.026005877161273 3.0999573473667015 0.0 
65 2 13.592353958776982 2.141496718954958 0.0 
66 1 14.15870204039269 3.0999573473667015 0.0 
67 2 14.725050122008398 2.141496718954958 0.0 
68 1 15.291398203624107 3.0999573473667015 0.0 
69 2 15.857746285239811 2.141496718954958 0.0 
70 1 16.42409436685552 3.0999573473667015 0.0 
71 2 16.990442448471228 2.141496718954958 0.0 
72 1 17.556790530086936 3.0999573473667015 0.0 
73 2 18.123138611702643 2.141496718954958 0.0 
74 1 18.68948669331835 3.0999573473667015 0.0 
75 2 19.25583477493406 2.141496718954958 0.0 
76 1 19.822182856549766 3.0999573473667015 0.0 
77 2 20.388530938165474 2.141496718954958 0.0 
78 1 20.95487901978118 3.0999573473667015 0.0 
79 2 21.52122710139689 2.141496718954958 0.0 
80 1 22.087575183012596 3.0999573473667015 0.0 
81 1 -8.474968616837037e-17 4.058417975778445 0.0 
82 1 0.5663480816157076 5.01687860419019 0.0 
83 1 1.1326961632314152 4.058417975778445 0.0 
84 1 1.6990442448471228 5.01687860419019 0.0 
85 1 2.2653923264628304 4.058417975778445 0.0 
86 1 2.831740408078538 5.01687860419019 0.0 
87 1 3.3980884896942456 4.058417975778445 0.0 
88 1 3.9644365713099528 5.01687860419019 0.0 
89 1 4.530784652925661 4.058417975778445 0.0 
90 1 5.097132734541368 5.01687860419019 0.0 
91 1 5.663480816157076 4.058417975778445 0.0 
92 1 6.2298288977727845 5.01687860419019 0.0 
93 1 6.796176979388491 4.058417975778445 0.0 
94 1 7.362525061004199 5.01687860419019 0.0 
95 1 7.9288731426199055 4.058417975778445 0.0 
96 1 8.495221224235614 5.01687860419019 0.0 
97 1 9.061569305851322 4.058417975778445 0.0 
98 1 9.62791738746703 5.01687860419019 0.0 
99 1 10.194265469082737 4.058417975778445 0.0 
100 1 10.760613550698444 5.01687860419019 0.0 
101 1 11.326961632314152 4.058417975778445 0.0 
102 1 11.89330971392986 5.01687860419019 0.0 
103 1 12.459657795545569 4.058417975778445 0.0 
104 1 13.026005877161273 5.01687860419019 0.0 
105 1 13.592353958776982 4.058417975778445 0.0 
106 1 14.15870204039269 5.01687860419019 0.0 
107 1 14.725050122008398 4.058417975778445 0.0 
108 1 15.291398203624107 5.01687860419019 0.0 
109 1 15.857746285239811 4.058417975778445 0.0 
110 1 16.42409436685552 5.01687860419019 0.0 
111 1 16.990442448471228 4.058417975778445 0.0 
112 1 17.556790530086936 5.01687860419019 0.0 
113 1 18.123138611702643 4.058417975778445 0.0 
114 1 18.68948669331835 5.01687860419019 0.0 
115 1 19.25583477493406 4.058417975778445 0.0 
116 1 19.822182856549766 5.01687860419019 0.0 
117 1 20.388530938165474 4.058417975778445 0.0 
118 1 20.95487901978118 5.01687860419019 0.0 
119 1 21.52122710139689 4.058417975778445 0.0 
120 1 22.087575183012596 5.01687860419019 0.0 
121 1 -3.076085624410819e-16 5.975339232601933 0.0 
122 1 0.5663480816157076 6.933799861013676 0.0 
123 1 1.1326961632314152 5.975339232601933 0.0 
124 1 1.6990442448471228 6.933799861013676 0.0 
125 1 2.2653923264628304 5.975339232601933 0.0 
126 1 2.831740408078538 6.933799861013676 0.0 
127 1 3.3980884896942456 5.975339232601933 0.0 
128 1 3.9644365713099528 6.933799861013676 0.0 
129 1 4.530784652925661 5.975339232601933 0.0 
130 1 5.097132734541368 6.933799861013676 0.0 
131 1 5.663480816157076 5.975339232601933 0.0 
132 1 6.2298288977727845 6.933799861013676 0.0 
133 1 6.796176979388491 5.975339232601933 0.0 
134 1 7.362525061004199 6.933799861013676 0.0 
135 1 7.9288731426199055 5.975339232601933 0.0 
136 1 8.495221224235614 6.933799861013676 0.0 
137 1 9.061569305851322 5.975339232601933 0.0 
138 1 9.62791738746703 6.933799861013676 0.0 
139 1 10.194265469082737 5.975339232601933 0.0 
140 1 10.760613550698444 6.933799861013676 0.0 
141 1 11.326961632314152 5.975339232601933 0.0 
142 1 11.89330971392986 6.933799861013676 0.0 
143 1 12.459657795545569 5.975339232601933 0.0 
144 1 13.026005877161273 6.933799861013676 0.0 
145 1 13.592353958776982 5.975339232601933 0.0 
146 1 14.15870204039269 6.933799861013676 0.0 
147 1 14.725050122008398 5.975339232601933 0.0 
148 1 15.291398203624107 6.933799861013676 0.0 
149 1 15.857746285239811 5.975339232601933 0.0 
150 1 16.42409436685552 6.933799861013676 0.0 
151 1 16.990442448471228 5.975339232601933 0.0 
152 1 17.556790530086936 6.933799861013676 0.0 
153 1 18.123138611702643 5.975339232601933 0.0 
154 1 18.68948669331835 6.933799861013676 0.0 
155 1 19.25583477493406 5.975339232601933 0.0 
156 1 19.822182856549766 6.933799861013676 0.0 
157 1 20.388530938165474 5.975339232601933 0.0 
158 1 20.95487901978118 6.933799861013676 0.0 
159 1 21.52122710139689 5.975339232601933 0.0 
160 1 22.087575183012596 6.933799861013676 0.0 
161 1 -1.0791105731412634e-15 7.89226048942542 0.0 
162 1 0.5663480816157076 8.8507019375 0.0 
163 1 1.1326961632314152 7.89226048942542 0.0 
164 1 1.6990442448471228 8.8507019375 0.0 
165 1 2.2653923264628304 7.89226048942542 0.0 
166 1 2.831740408078538 8.8507019375 0.0 
167 1 3.3980884896942456 7.89226048942542 0.0 
168 1 3.9644365713099528 8.8507019375 0.0 
169 1 4.530784652925661 7.89226048942542 0.0 
170 1 5.097132734541368 8.8507019375 0.0 
171 1 5.663480816157076 7.89226048942542 0.0 
172 1 6.2298288977727845 8.8507019375 0.0 
173 1 6.796176979388491 7.89226048942542 0.0 
174 1 7.362525061004199 8.8507019375 0.0 
175 1 7.9288731426199055 7.89226048942542 0.0 
176 1 8.495221224235614 8.8507019375 0.0 
177 1 9.061569305851322 7.89226048942542 0.0 
178 1 9.62791738746703 8.8507019375 0.0 
179 1 10.194265469082737 7.89226048942542 0.0 
180 1 10.760613550698444 8.8507019375 0.0 
181 1 11.326961632314152 7.89226048942542 0.0 
182 1 11.89330971392986 8.8507019375 0.0 
183 1 12.459657795545569 7.89226048942542 0.0 
184 1 13.026005877161273 8.8507019375 0.0 
185 1 13.592353958776982 7.89226048942542 0.0 
186 1 14.15870204039269 8.8507019375 0.0 
187 1 14.725050122008398 7.89226048942542 0.0 
188 1 15.291398203624107 8.8507019375 0.0 
189 1 15.857746285239811 7.89226048942542 0.0 
190 1 16.42409436685552 8.8507019375 0.0 
191 1 16.990442448471228 7.89226048942542 0.0 
192 1 17.556790530086936 8.8507019375 0.0 
193 1 18.123138611702643 7.89226048942542 0.0 
194 1 18.68948669331835 8.8507019375 0.0 
195 1 19.25583477493406 7.89226048942542 0.0 
196 1 19.822182856549766 8.8507019375 0.0 
197 1 20.388530938165474 7.89226048942542 0.0 
198 1 20.95487901978118 8.8507019375 0.0 
199 1 21.52122710139689 7.89226048942542 0.0 
200 1 22.087575183012596 8.8507019375 0.0 
201 1 2.08835191614976e-15 9.80914338557458 0.0 
202 1 0.5663480816157076 10.76758483364916 0.0 
203 1 1.1326961632314152 9.80914338557458 0.0 
204 1 1.6990442448471228 10.76758483364916 0.0 
205 1 2.2653923264628304 9.80914338557458 0.0 
206 1 2.831740408078538 10.76758483364916 0.0 
207 1 3.3980884896942456 9.80914338557458 0.0 
208 1 3.9644365713099528 10.76758483364916 0.0 
209 1 4.530784652925661 9.80914338557458 0.0 
210 1 5.097132734541368 10.76758483364916 0.0 
211 1 5.663480816157076 9.80914338557458 0.0 
212 1 6.2298288977727845 10.76758483364916 0.0 
213 1 6.796176979388491 9.80914338557458 0.0 
214 1 7.362525061004199 10.76758483364916 0.0 
215 1 7.9288731426199055 9.80914338557458 0.0 
216 1 8.495221224235614 10.76758483364916 0.0 
217 1 9.061569305851322 9.80914338557458 0.0 
218 1 9.62791738746703 10.76758483364916 0.0 
219 1 10.194265469082737 9.80914338557458 0.0 
220 1 10.760613550698444 10.76758483364916 0.0 
221 1 11.326961632314152 9.80914338557458 0.0 
222 1 11.89330971392986 10.76758483364916 0.0 
223 1 12.459657795545569 9.80914338557458 0.0 
224 1 13.026005877161273 10.76758483364916 0.0 
225 1 13.592353958776982 9.80914338557458 0.0 
226 1 14.15870204039269 10.76758483364916 0.0 
227 1 14.725050122008398 9.80914338557458 0.0 
228 1 15.291398203624107 10.76758483364916 0.0 
229 1 15.857746285239811 9.80914338557458 0.0 
230 1 16.42409436685552 10.76758483364916 0.0 
231 1 16.990442448471228 9.80914338557458 0.0 
232 1 17.556790530086936 10.76758483364916 0.0 
233 1 18.123138611702643 9.80914338557458 0.0 
234 1 18.68948669331835 10.76758483364916 0.0 
235 1 19.25583477493406 9.80914338557458 0.0 
236 1 19.822182856549766 10.76758483364916 0.0 
237 1 20.388530938165474 9.80914338557458 0.0 
238 1 20.95487901978118 10.76758483364916 0.0 
239 1 21.52122710139689 9.80914338557458 0.0 
240 1 22.087575183012596 10.76758483364916 0.0 
241 1 -1.4352506353921586e-15 11.726007101386577 0.0 
242 1 0.5663480816157076 12.684429369123992 0.0 
243 1 1.1326961632314152 11.726007101386577 0.0 
244 1 1.6990442448471228 12.684429369123992 0.0 
245 1 2.2653923264628304 11.726007101386577 0.0 
246 1 2.831740408078538 12.684429369123992 0.0 
247 1 3.3980884896942456 11.726007101386577 0.0 
248 1 3.9644365713099528 12.684429369123992 0.0 
249 1 4.530784652925661 11.726007101386577 0.0 
250 1 5.097132734541368 12.684429369123992 0.0 
251 1 5.663480816157076 11.726007101386577 0.0 
252 1 6.2298288977727845 12.684429369123992 0.0 
253 1 6.796176979388491 11.726007101386577 0.0 
254 1 7.362525061004199 12.684429369123992 0.0 
255 1 7.9288731426199055 11.726007101386577 0.0 
256 1 8.495221224235614 12.684429369123992 0.0 
257 1 9.061569305851322 11.726007101386577 0.0 
258 1 9.62791738746703 12.684429369123992 0.0 
259 1 10.194265469082737 11.726007101386577 0.0 
260 1 10.760613550698444 12.684429369123992 0.0 
261 1 11.326961632314152 11.726007101386577 0.0 
262 1 11.89330971392986 12.684429369123992 0.0 
263 1 12.459657795545569 11.726007101386577 0.0 
264 1 13.026005877161273 12.684429369123992 0.0 
265 1 13.592353958776982 11.726007101386577 0.0 
266 1 14.15870204039269 12.684429369123992 0.0 
267 1 14.725050122008398 11.726007101386577 0.0 
268 1 15.291398203624107 12.684429369123992 0.0 
269 1 15.857746285239811 11.726007101386577 0.0 
270 1 16.42409436685552 12.684429369123992 0.0 
271 1 16.990442448471228 11.726007101386577 0.0 
272 1 17.556790530086936 12.684429369123992 0.0 
273 1 18.123138611702643 11.726007101386577 0.0 
274 1 18.68948669331835 12.684429369123992 0.0 
275 1 19.25583477493406 11.726007101386577 0.0 
276 1 19.822182856549766 12.684429369123992 0.0 
277 1 20.388530938165474 11.726007101386577 0.0 
278 1 20.95487901978118 12.684429369123992 0.0 
279 1 21.52122710139689 11.726007101386577 0.0 
280 1 22.087575183012596 12.684429369123992 0.0 
281 1 -3.813244287441824e-16 13.642851636861408 0.0 
282 1 0.5663480816157076 14.601254724261661 0.0 
283 1 1.1326961632314152 13.642851636861408 0.0 
284 1 1.6990442448471228 14.601254724261661 0.0 
285 1 2.2653923264628304 13.642851636861408 0.0 
286 1 2.831740408078538 14.601254724261661 0.0 
287 1 3.3980884896942456 13.642851636861408 0.0 
288 1 3.9644365713099528 14.601254724261661 0.0 
289 1 4.530784652925661 13.642851636861408 0.0 
290 1 5.097132734541368 14.601254724261661 0.0 
291 1 5.663480816157076 13.642851636861408 0.0 
292 1 6.2298288977727845 14.601254724261661 0.0 
293 1 6.796176979388491 13.642851636861408 0.0 
294 1 7.362525061004199 14.601254724261661 0.0 
295 1 7.9288731426199055 13.642851636861408 0.0 
296 1 8.495221224235614 14.601254724261661 0.0 
297 1 9.061569305851322 13.642851636861408 0.0 
298 1 9.62791738746703 14.601254724261661 0.0 
299 1 10.194265469082737 13.642851636861408 0.0 
300 1 10.760613550698444 14.601254724261661 0.0 
301 1 11.326961632314152 13.642851636861408 0.0 
302 1 11.89330971392986 14.601254724261661 0.0 
303 1 12.459657795545569 13.642851636861408 0.0 
304 1 13.026005877161273 14.601254724261661 0.0 
305 1 13.592353958776982 13.642851636861408 0.0 
306 1 14.15870204039269 14.601254724261661 0.0 
307 1 14.725050122008398 13.642851636861408 0.0 
308 1 15.291398203624107 14.601254724261661 0.0 
309 1 15.857746285239811 13.642851636861408 0.0 
310 1 16.42409436685552 14.601254724261661 0.0 
311 1 16.990442448471228 13.642851636861408 0.0 
312 1 17.556790530086936 14.601254724261661 0.0 
313 1 18.123138611702643 13.642851636861408 0.0 
314 1 18.68948669331835 14.601254724261661 0.0 
315 1 19.25583477493406 13.642851636861408 0.0 
316 1 19.822182856549766 14.601254724261661 0.0 
317 1 20.388530938165474 13.642851636861408 0.0 
318 1 20.95487901978118 14.601254724261661 0.0 
319 1 21.52122710139689 13.642851636861408 0.0 
320 1 22.087575183012596 14.601254724261661 0.0 
321 1 -4.117735670041693e-16 15.559657811661912 0.0 
322 1 0.5663480816157076 16.518041718724998 0.0 
323 1 1.1326961632314152 15.559657811661912 0.0 
324 1 1.6990442448471228 16.518041718724998 0.0 
325 1 2.2653923264628304 15.559657811661912 0.0 
326 1 2.831740408078538 16.518041718724998 0.0 
327 1 3.3980884896942456 15.559657811661912 0.0 
328 1 3.9644365713099528 16.518041718724998 0.0 
329 1 4.530784652925661 15.559657811661912 0.0 
330 1 5.097132734541368 16.518041718724998 0.0 
331 1 5.663480816157076 15.559657811661912 0.0 
332 1 6.2298288977727845 16.518041718724998 0.0 
333 1 6.796176979388491 15.559657811661912 0.0 
334 1 7.362525061004199 16.518041718724998 0.0 
335 1 7.9288731426199055 15.559657811661912 0.0 
336 1 8.495221224235614 16.518041718724998 0.0 
337 1 9.061569305851322 15.559657811661912 0.0 
338 1 9.62791738746703 16.518041718724998 0.0 
339 1 10.194265469082737 15.559657811661912 0.0 
340 1 10.760613550698444 16.518041718724998 0.0 
341 1 11.326961632314152 15.559657811661912 0.0 
342 1 11.89330971392986 16.518041718724998 0.0 
343 1 12.459657795545569 15.559657811661912 0.0 
344 1 13.026005877161273 16.518041718724998 0.0 
345 1 13.592353958776982 15.559657811661912 0.0 
346 1 14.15870204039269 16.518041718724998 0.0 
347 1 14.725050122008398 15.559657811661912 0.0 
348 1 15.291398203624107 16.518041718724998 0.0 
349 1 15.857746285239811 15.559657811661912 0.0 
350 1 16.42409436685552 16.518041718724998 0.0 
351 1 16.990442448471228 15.559657811661912 0.0 
352 1 17.556790530086936 16.518041718724998 0.0 
353 1 18.123138611702643 15.559657811661912 0.0 
354 1 18.68948669331835 16.518041718724998 0.0 
355 1 19.25583477493406 15.559657811661912 0.0 
356 1 19.822182856549766 16.518041718724998 0.0 
357 1 20.388530938165474 15.559657811661912 0.0 
358 1 20.95487901978118 16.518041718724998 0.0 
359 1 21.52122710139689 15.559657811661912 0.0 
360 1 22.087575183012596 16.518041718724998 0.0 
361 1 -3.9352356642218475e-16 17.47642562578809 0.0 
362 1 0.5663480816157076 18.434847893525504 0.0 
363 1 1.1326961632314152 17.47642562578809 0.0 
364 1 1.6990442448471228 18.434847893525504 0.0 
365 1 2.2653923264628304 17.47642562578809 0.0 
366 1 2.831740408078538 18.434847893525504 0.0 
367 1 3.3980884896942456 17.47642562578809 0.0 
368 1 3.9644365713099528 18.434847893525504 0.0 
369 1 4.530784652925661 17.47642562578809 0.0 
370 1 5.097132734541368 18.434847893525504 0.0 
371 1 5.663480816157076 17.47642562578809 0.0 
372 1 6.2298288977727845 18.434847893525504 0.0 
373 1 6.796176979388491 17.47642562578809 0.0 
374 1 7.362525061004199 18.434847893525504 0.0 
375 1 7.9288731426199055 17.47642562578809 0.0 
376 1 8.495221224235614 18.434847893525504 0.0 
377 1 9.061569305851322 17.47642562578809 0.0 
378 1 9.62791738746703 18.434847893525504 0.0 
393 1 18.123138611702643 17.47642562578809 0.0 
394 1 18.68948669331835 18.434847893525504 0.0 
395 1 19.25583477493406 17.47642562578809 0.0 
396 1 19.822182856549766 18.434847893525504 0.0 
397 1 20.388530938165474 17.47642562578809 0.0 
398 1 20.95487901978118 18.434847893525504 0.0 
399 1 21.52122710139689 17.47642562578809 0.0 
400 1 22.087575183012596 18.434847893525504 0.0 
401 1 5.513194689219532e-16 19.397298032067315 0.0 
402 1 1.1326961632314152 19.397298032067315 0.0 
403 1 2.2653923264628304 19.397298032067315 0.0 
404 1 3.3980884896942456 19.397298032067315 0.0 
405 1 4.530784652925661 19.397298032067315 0.0 
406 1 5.663480816157076 19.397298032067315 0.0 
407 1 6.796176979388491 19.397298032067315 0.0 
408 1 7.9288731426199055 19.397298032067315 0.0 
409 1 9.061569305851322 19.397298032067315 0.0 
417 1 18.123138611702643 19.397298032067315 0.0 
418 1 19.25583477493406 19.397298032067315 0.0 
419 1 20.388530938165474 19.397298032067315 0.0 
420 1 21.52122710139689 19.397298032067315 0.0 
ITEM: TIMESTEP
2
ITEM: NUMBER OF ATOMS
420
ITEM: BOX BOUNDS
0.0 22.653923264628304
0.2191857873884455 20.077780227670736
-0.2831740408078538 0.2831740408078538
ITEM: ATOMS id type x y z 
379 3 10.200291412671127 17.484704541441996 0.0 
380 3 10.76573333735625 18.44601938110718 0.0 
381 3 11.335071736842888 17.48982805880759 0.0 
382 3 11.903300094089563 18.45573023378848 0.0 
383 3 12.467994439306949 17.491694766684972 0.0 
384 3 13.037604685872765 18.458212558093514 0.0 
385 3 13.599036866140048 17.48659110791382 0.0 
386 3 14.178750762481886 18.43471984087066 0.0 
387 3 14.735720119866038 17.47572845675499 0.0 
388 3 15.308637839228487 18.431661617326856 0.0 
389 3 15.86850689879051 17.472848960561148 0.0 
390 3 16.438049183586532 18.430628970415963 0.0 
391 3 17.000138327628488 17.472074475377976 0.0 
392 3 17.567890952486604 18.430668687604843 0.0 
410 3 10.194582624008442 19.405169633978375 0.0 
411 3 11.329521525643056 19.41545638589844 0.0 
412 3 12.756356228542403 20.073669498621598 0.0 
413 3 13.638046922001738 19.40056244006823 0.0 
414 3 14.755293109566676 19.396987893068978 0.0 
415 3 15.878701164259594 19.394545285952823 0.0 
416 3 17.005461999595674 19.393909810930733 0.0 
1 2 1.8292204841026564e-16 0.22114807014266133 0.0 
2 2 0.5663480816157076 1.183293107061209 0.0 
3 2 1.1326961632314152 0.22114807014266133 0.0 
4 2 1.6990442448471228 1.183293107061209 0.0 
5 2 2.2653923264628304 0.22114807014266133 0.0 
6 2 2.831740408078538 1.183293107061209 0.0 
7 2 3.3980884896942456 0.22114807014266133 0.0 
8 2 3.9644365713099528 1.183293107061209 0.0 
9 2 4.530784652925661 0.22114807014266133 0.0 
10 2 5.097132734541368 1.183293107061209 0.0 
11 2 5.663480816157076 0.22114807014266133 0.0 
12 2 6.2298288977727845 1.183293107061209 0.0 
13 2 6.796176979388491 0.22114807014266133 0.0 
14 2 7.362525061004199 1.183293107061209 0.0 
15 2 7.9288731426199055 0.22114807014266133 0.0 
16 2 8.495221224235614 1.183293107061209 0.0 
17 2 9.061569305851322 0.22114807014266133 0.0 
18 2 9.62791738746703 1.183293107061209 0.0 
19 2 10.194265469082737 0.22114807014266133 0.0 
20 2 10.760613550698444 1.183293107061209 0.0 
21 2 11.326961632314152 0.22114807014266133 0.0 
22 2 11.89330971392986 1.183293107061209 0.0 
23 2 12.459657795545569 0.22114807014266133 0.0 
24 2 13.026005877161273 1.183293107061209 0.0 
25 2 13.592353958776982 0.22114807014266133 0.0 
26 2 14.15870204039269 1.183293107061209 0.0 
27 2 14.725050122008398 0.22114807014266133 0.0 
28 2 15.291398203624107 1.183293107061209 0.0 
29 2 15.857746285239811 0.22114807014266133 0.0 
30 2 16.42409436685552 1.183293107061209 0.0 
31 2 16.990442448471228 0.22114807014266133 0.0 
32 2 17.556790530086936 1.183293107061209 0.0 
33 2 18.123138611702643 0.22114807014266133 0.0 
34 2 18.68948669331835 1.183293107061209 0.0 
35 2 19.25583477493406 0.22114807014266133 0.0 
36 2 19.822182856549766 1.183293107061209 0.0 
37 2 20.388530938165474 0.22114807014266133 0.0 
38 2 20.95487901978118 1.183293107061209 0.0 
39 2 21.52122710139689 0.22114807014266133 0.0 
40 2 22.087575183012596 1.183293107061209 0.0 
41 2 2.423380787310348e-16 2.141496718954958 0.0 
42 1 0.5663480816157076 3.0999573473667015 0.0 
43 2 1.1326961632314152 2.141496718954958 0.0 
44 1 1.6990442448471228 3.0999573473667015 0.0 
45 2 2.2653923264628304 2.141496718954958 0.0 
46 1 2.831740408078538 3.0999573473667015 0.0 
47 2 3.3980884896942456 2.141496718954958 0.0 
48 1 3.9644365713099528 3.0999573473667015 0.0 
49 2 4.530784652925661 2.141496718954958 0.0 
50 1 5.097132734541368 3.0999573473667015 0.0 
51 2 5.663480816157076 2.141496718954958 0.0 
52 1 6.2298288977727845 3.0999573473667015 0.0 
53 2 6.796176979388491 2.141496718954958 0.0 
54 1 7.362525061004199 3.0999573473667015 0.0 
55 2 7.9288731426199055 2.141496718954958 0.0 
56 1 8.495221224235614 3.0999573473667015 0.0 
57 2 9.061569305851322 2.141496718954958 0.0 
58 1 9.62791738746703 3.0999573473667015 0.0 
59 2 10.194265469082737 2.141496718954958 0.0 
60 1 10.760613550698444 3.0999573473667015 0.0 
61 2 11.326961632314152 2.141496718954958 0.0 
62 1 11.89330971392986 3.0999573473667015 0.0 
63 2 12.459657795545569 2.141496718954958 0.0 
64 1 13.026005877161273 3.0999573473667015 0.0 
65 2 13.592353958776982 2.141496718954958 0.0 
66 1 14.15870204039269 3.0999573473667015 0.0 
67 2 14.725050122008398 2.141496718954958 0.0 
68 1 15.291398203624107 3.0999573473667015 0.0 
69 2 15.857746285239811 2.141496718954958 0.0 
70 1 16.42409436685552 3.0999573473667015 0.0 
71 2 16.990442448471228 2.141496718954958 0.0 
72 1 17.556790530086936 3.0999573473667015 0.0 
73 2 18.123138611702643 2.141496718954958 0.0 
74 1 18.68948669331835 3.0999573473667015 0.0 
75 2 19.25583477493406 2.141496718954958 0.0 
76 1 19.822182856549766 3.0999573473667015 0.0 
77 2 20.388530938165474 2.141496718954958 0.0 
78 1 20.95487901978118 3.0999573473667015 0.0 
79 2 21.52122710139689 2.141496718954958 0.0 
80 1 22.087575183012596 3.0999573473667015 0.0 
81 1 -8.474968616837037e-17 4.058417975778445 0.0 
82 1 0.5663480816157076 5.01687860419019 0.0 
83 1 1.1326961632314152 4.058417975778445 0.0 
84 1 1.6990442448471228 5.01687860419019 0.0 
85 1 2.2653923264628304 4.058417975778445 0.0 
86 1 2.831740408078538 5.01687860419019 0.0 
87 1 3.3980884896942456 4.058417975778445 0.0 
88 1 3.9644365713099528 5.01687860419019 0.0 
89 1 4.530784652925661 4.058417975778445 0.0 
90 1 5.097132734541368 5.01687860419019 0.0 
91 1 5.663480816157076 4.058417975778445 0.0 
92 1 6.2298288977727845 5.01687860419019 0.0 
93 1 6.796176979388491 4.058417975778445 0.0 
94 1 7.362525061004199 5.01687860419019 0.0 
95 1 7.9288731426199055 4.058417975778445 0.0 
96 1 8.495221224235614 5.01687860419019 0.0 
97 1 9.061569305851322 4.058417975778445 0.0 
98 1 9.62791738746703 5.01687860419019 0.0 
99 1 10.194265469082737 4.058417975778445 0.0 
100 1 10.760613550698444 5.01687860419019 0.0 
101 1 11.326961632314152 4.058417975778445 0.0 
102 1 11.89330971392986 5.01687860419019 0.0 
103 1 12.459657795545569 4.058417975778445 0.0 
104 1 13.026005877161273 5.01687860419019 0.0 
105 1 13.592353958776982 4.058417975778445 0.0 
106 1 14.15870204039269 5.01687860419019 0.0 
107 1 14.725050122008398 4.058417975778445 0.0 
108 1 15.291398203624107 5.01687860419019 0.0 
109 1 15.857746285239811 4.058417975778445 0.0 
110 1 16.42409436685552 5.01687860419019 0.0 
111 1 16.990442448471228 4.058417975778445 0.0 
112 1 17.556790530086936 5.01687860419019 0.0 
113 1 18.123138611702643 4.058417975778445 0.0 
114 1 18.68948669331835 5.01687860419019 0.0 
115 1 19.25583477493406 4.058417975778445 0.0 
116 1 19.822182856549766 5.01687860419019 0.0 
117 1 20.388530938165474 4.058417975778445 0.0 
118 1 20.95487901978118 5.01687860419019 0.0 
119 1 21.52122710139689 4.058417975778445 0.0 
120 1 22.087575183012596 5.01687860419019 0.0 
121 1 -3.076085624410819e-16 5.975339232601933 0.0 
122 1 0.5663480816157076 6.933799861013676 0.0 
123 1 1.1326961632314152 5.975339232601933 0.0 
124 1 1.6990442448471228 6.933799861013676 0.0 
125 1 2.2653923264628304 5.975339232601933 0.0 
126 1 2.831740408078538 6.933799861013676 0.0 
127 1 3.3980884896942456 5.975339232601933 0.0 
128 1 3.9644365713099528 6.933799861013676 0.0 
129 1 4.530784652925661 5.975339232601933 0.0 
130 1 5.097132734541368 6.933799861013676 0.0 
131 1 5.663480816157076 5.975339232601933 0.0 
132 1 6.2298288977727845 6.933799861013676 0.0 
133 1 6.796176979388491 5.975339232601933 0.0 
134 1 7.362525061004199 6.933799861013676 0.0 
135 1 7.9288731426199055 5.975339232601933 0.0 
136 1 8.495221224235614 6.933799861013676 0.0 
137 1 9.061569305851322 5.975339232601933 0.0 
138 1 9.62791738746703 6.933799861013676 0.0 
139 1 10.194265469082737 5.975339232601933 0.0 
140 1 10.760613550698444 6.933799861013676 0.0 
141 1 11.326961632314152 5.975339232601933 0.0 
142 1 11.89330971392986 6.933799861013676 0.0 
143 1 12.459657795545569 5.975339232601933 0.0 
144 1 13.026005877161273 6.933799861013676 0.0 
145 1 13.592353958776982 5.975339232601933 0.0 
146 1 14.15870204039269 6.933799861013676 0.0 
147 1 14.725050122008398 5.975339232601933 0.0 
148 1 15.291398203624107 6.933799861013676 0.0 
149 1 15.857746285239811 5.975339232601933 0.0 
150 1 16.42409436685552 6.933799861013676 0.0 
151 1 16.990442448471228 5.975339232601933 0.0 
152 1 17.556790530086936 6.933799861013676 0.0 
153 1 18.123138611702643 5.975339232601933 0.0 
154 1 18.68948669331835 6.933799861013676 0.0 
155 1 19.25583477493406 5.975339232601933 0.0 
156 1 19.822182856549766 6.933799861013676 0.0 
157 1 20.388530938165474 5.975339232601933 0.0 
158 1 20.95487901978118 6.933799861013676 0.0 
159 1 21.52122710139689 5.975339232601933 0.0 
160 1 22.087575183012596 6.933799861013676 0.0 
161 1 -1.0791105731412634e-15 7.89226048942542 0.0 
162 1 0.5663480816157076 8.8507019375 0.0 
163 1 1.1326961632314152 7.89226048942542 0.0 
164 1 1.6990442448471228 8.8507019375 0.0 
165 1 2.2653923264628304 7.89226048942542 0.0 
166 1 2.831740408078538 8.8507019375 0.0 
167 1 3.3980884896942456 7.89226048942542 0.0 
168 1 3.9644365713099528 8.8507019375 0.0 
169 1 4.530784652925661 7.89226048942542 0.0 
170 1 5.097132734541368 8.8507019375 0.0 
171 1 5.663480816157076 7.89226048942542 0.0 
172 1 6.2298288977727845 8.8507019375 0.0 
173 1 6.796176979388491 7.89226048942542 0.0 
174 1 7.362525061004199 8.8507019375 0.0 
175 1 7.9288731426199055 7.89226048942542 0.0 
176 1 8.495221224235614 8.8507019375 0.0 
177 1 9.061569305851322 7.89226048942542 0.0 
178 1 9.62791738746703 8.8507019375 0.0 
179 1 10.194265469082737 7.89226048942542 0.0 
180 1 10.760613550698444 8.8507019375 0.0 
181 1 11.326961632314152 7.89226048942542 0.0 
182 1 11.89330971392986 8.8507019375 0.0 
183 1 12.459657795545569 7.89226048942542 0.0 