ITEM: TIMESTEP
0
ITEM: NUMBER OF ATOMS
399
ITEM: BOX BOUNDS pp ss pp
0.0000000000000000e+00 2.2653923264628304e+01
2.1918578738844549e-01 2.0134537271508801e+01
-2.8317404080785380e-01 2.8317404080785380e-01
ITEM: ATOMS id type xs ys zs
1 2 8.07463e-18 9.8531e-05 0.5
2 2 0.025 0.0484103 0.5
3 2 0.05 9.8531e-05 0.5
4 2 0.075 0.0484103 0.5
5 2 0.1 9.8531e-05 0.5
6 2 0.125 0.0484103 0.5
7 2 0.15 9.8531e-05 0.5
8 2 0.175 0.0484103 0.5
9 2 0.2 9.8531e-05 0.5
10 2 0.225 0.0484103 0.5
11 2 0.25 9.8531e-05 0.5
12 2 0.275 0.0484103 0.5
13 2 0.3 9.8531e-05 0.5
14 2 0.325 0.0484103 0.5
15 2 0.35 9.8531e-05 0.5
16 2 0.375 0.0484103 0.5
17 2 0.4 9.8531e-05 0.5
18 2 0.425 0.0484103 0.5
19 2 0.45 9.8531e-05 0.5
20 2 0.475 0.0484103 0.5
21 2 0.5 9.8531e-05 0.5
22 2 0.525 0.0484103 0.5
23 2 0.55 9.8531e-05 0.5
24 2 0.575 0.0484103 0.5
25 2 0.6 9.8531e-05 0.5
26 2 0.625 0.0484103 0.5
27 2 0.65 9.8531e-05 0.5
28 2 0.675 0.0484103 0.5
29 2 0.7 9.8531e-05 0.5
30 2 0.725 0.0484103 0.5
31 2 0.75 9.8531e-05 0.5
32 2 0.775 0.0484103 0.5
33 2 0.8 9.8531e-05 0.5
34 2 0.825 0.0484103 0.5
35 2 0.85 9.8531e-05 0.5
36 2 0.875 0.0484103 0.5
37 2 0.9 9.8531e-05 0.5
38 2 0.925 0.0484103 0.5
39 2 0.95 9.8531e-05 0.5
40 2 0.975 0.0484103 0.5
41 2 1.06974e-17 0.096524 0.5
42 1 0.025 0.144629 0.5
43 2 0.05 0.096524 0.5
44 1 0.075 0.144629 0.5
45 2 0.1 0.096524 0.5
46 1 0.125 0.144629 0.5
47 2 0.15 0.096524 0.5
48 1 0.175 0.144629 0.5
49 2 0.2 0.096524 0.5
50 1 0.225 0.144629 0.5
51 2 0.25 0.096524 0.5
52 1 0.275 0.144629 0.5
53 2 0.3 0.096524 0.5
54 1 0.325 0.144629 0.5
55 2 0.35 0.096524 0.5
56 1 0.375 0.144629 0.5
57 2 0.4 0.096524 0.5
58 1 0.425 0.144629 0.5
59 2 0.45 0.096524 0.5
60 1 0.475 0.144629 0.5
61 2 0.5 0.096524 0.5
62 1 0.525 0.144629 0.5
63 2 0.55 0.096524 0.5
64 1 0.575 0.144629 0.5
65 2 0.6 0.096524 0.5
66 1 0.625 0.144629 0.5
67 2 0.65 0.096524 0.5
68 1 0.675 0.144629 0.5
69 2 0.7 0.096524 0.5
70 1 0.725 0.144629 0.5
71 2 0.75 0.096524 0.5
72 1 0.775 0.144629 0.5
73 2 0.8 0.096524 0.5
74 1 0.825 0.144629 0.5
75 2 0.85 0.096524 0.5
76 1 0.875 0.144629 0.5
77 2 0.9 0.096524 0.5
78 1 0.925 0.144629 0.5
79 2 0.95 0.096524 0.5
80 1 0.975 0.144629 0.5
81 1 2.30284e-18 0.192757 0.5
82 1 0.025 0.240883 0.5
83 1 0.05 0.192757 0.5
84 1 0.075 0.240883 0.5
85 1 0.1 0.192757 0.5
86 1 0.125 0.240883 0.5
87 1 0.15 0.192757 0.5
88 1 0.175 0.240883 0.5
89 1 0.2 0.192757 0.5
90 1 0.225 0.240883 0.5
91 1 0.25 0.192757 0.5
92 1 0.275 0.240883 0.5
93 1 0.3 0.192757 0.5
94 1 0.325 0.240883 0.5
95 1 0.35 0.192757 0.5
96 1 0.375 0.240883 0.5
97 1 0.4 0.192757 0.5
98 1 0.425 0.240883 0.5
99 1 0.45 0.192757 0.5
100 1 0.475 0.240883 0.5
101 1 0.5 0.192757 0.5
102 1 0.525 0.240883 0.5
103 1 0.55 0.192757 0.5
104 1 0.575 0.240883 0.5
105 1 0.6 0.192757 0.5
106 1 0.625 0.240883 0.5
107 1 0.65 0.192757 0.5
108 1 0.675 0.240883 0.5
109 1 0.7 0.192757 0.5
110 1 0.725 0.240883 0.5
111 1 0.75 0.192757 0.5
112 1 0.775 0.240883 0.5
113 1 0.8 0.192757 0.5
114 1 0.825 0.240883 0.5
115 1 0.85 0.192757 0.5
116 1 0.875 0.240883 0.5
117 1 0.9 0.192757 0.5
118 1 0.925 0.240883 0.5
119 1 0.95 0.192757 0.5
120 1 0.975 0.240883 0.5
121 1 0 0.289016 0.5
122 1 0.025 0.337153 0.5
123 1 0.05 0.289016 0.5
124 1 0.075 0.337153 0.5
125 1 0.1 0.289016 0.5
126 1 0.125 0.337153 0.5
127 1 0.15 0.289016 0.5
128 1 0.175 0.337153 0.5
129 1 0.2 0.289016 0.5
130 1 0.225 0.337153 0.5
131 1 0.25 0.289016 0.5
132 1 0.275 0.337153 0.5
133 1 0.3 0.289016 0.5
134 1 0.325 0.337153 0.5
135 1 0.35 0.289016 0.5
136 1 0.375 0.337153 0.5
137 1 0.4 0.289016 0.5
138 1 0.425 0.337153 0.5
139 1 0.45 0.289016 0.5
140 1 0.475 0.337153 0.5
141 1 0.5 0.289016 0.5
142 1 0.525 0.337153 0.5
143 1 0.55 0.289016 0.5
144 1 0.575 0.337153 0.5
145 1 0.6 0.289016 0.5
146 1 0.625 0.337153 0.5
147 1 0.65 0.289016 0.5
148 1 0.675 0.337153 0.5
149 1 0.7 0.289016 0.5
150 1 0.725 0.337153 0.5
151 1 0.75 0.289016 0.5
152 1 0.775 0.337153 0.5
153 1 0.8 0.289016 0.5
154 1 0.825 0.337153 0.5
155 1 0.85 0.289016 0.5
156 1 0.875 0.337153 0.5
157 1 0.9 0.289016 0.5
158 1 0.925 0.337153 0.5
159 1 0.95 0.289016 0.5
160 1 0.975 0.337153 0.5
161 1 0 0.385284 0.5
162 1 0.025 0.433416 0.5
163 1 0.05 0.385284 0.5
164 1 0.075 0.433416 0.5
165 1 0.1 0.385284 0.5
166 1 0.125 0.433416 0.5
167 1 0.15 0.385284 0.5
168 1 0.175 0.433416 0.5
169 1 0.2 0.385284 0.5
170 1 0.225 0.433416 0.5
171 1 0.25 0.385284 0.5
172 1 0.275 0.433416 0.5
173 1 0.3 0.385284 0.5
174 1 0.325 0.433416 0.5
175 1 0.35 0.385284 0.5
176 1 0.375 0.433416 0.5
177 1 0.4 0.385284 0.5
178 1 0.425 0.433416 0.5
179 1 0.45 0.385284 0.5
180 1 0.475 0.433416 0.5
181 1 0.5 0.385284 0.5
182 1 0.525 0.433416 0.5
183 1 0.55 0.385284 0.5
184 1 0.575 0.433416 0.5
185 1 0.6 0.385284 0.5
186 1 0.625 0.433416 0.5
187 1 0.65 0.385284 0.5
188 1 0.675 0.433416 0.5
189 1 0.7 0.385284 0.5
190 1 0.725 0.433416 0.5
191 1 0.75 0.385284 0.5
192 1 0.775 0.433416 0.5
193 1 0.8 0.385284 0.5
194 1 0.825 0.433416 0.5
195 1 0.85 0.385284 0.5
196 1 0.875 0.433416 0.5
197 1 0.9 0.385284 0.5
198 1 0.925 0.433416 0.5
199 1 0.95 0.385284 0.5
200 1 0.975 0.433416 0.5
201 1 1.08893e-18 0.481551 0.5
202 1 0.025 0.529685 0.5
203 1 0.05 0.481551 0.5
204 1 0.075 0.529685 0.5
205 1 0.1 0.481551 0.5
206 1 0.125 0.529685 0.5
207 1 0.15 0.481551 0.5
208 1 0.175 0.529685 0.5
209 1 0.2 0.481551 0.5
210 1 0.225 0.529685 0.5
211 1 0.25 0.481551 0.5
212 1 0.275 0.529685 0.5
213 1 0.3 0.481551 0.5
214 1 0.325 0.529685 0.5
215 1 0.35 0.481551 0.5
216 1 0.375 0.529685 0.5
217 1 0.4 0.481551 0.5
218 1 0.425 0.529685 0.5
219 1 0.45 0.481551 0.5
220 1 0.475 0.529685 0.5
221 1 0.5 0.481551 0.5
222 1 0.525 0.529685 0.5
223 1 0.55 0.481551 0.5
224 1 0.575 0.529685 0.5
225 1 0.6 0.481551 0.5
226 1 0.625 0.529685 0.5
227 1 0.65 0.481551 0.5
228 1 0.675 0.529685 0.5
229 1 0.7 0.481551 0.5
230 1 0.725 0.529685 0.5
231 1 0.75 0.481551 0.5
232 1 0.775 0.529685 0.5
233 1 0.8 0.481551 0.5
234 1 0.825 0.529685 0.5
235 1 0.85 0.481551 0.5
236 1 0.875 0.529685 0.5
237 1 0.9 0.481551 0.5
238 1 0.925 0.529685 0.5
239 1 0.95 0.481551 0.5
240 1 0.975 0.529685 0.5
241 1 0 0.577817 0.5
242 1 0.025 0.625948 0.5
243 1 0.05 0.577817 0.5
244 1 0.075 0.625948 0.5
245 1 0.1 0.577817 0.5
246 1 0.125 0.625948 0.5
247 1 0.15 0.577817 0.5
248 1 0.175 0.625948 0.5
249 1 0.2 0.577817 0.5
250 1 0.225 0.625948 0.5
251 1 0.25 0.577817 0.5
252 1 0.275 0.625948 0.5
253 1 0.3 0.577817 0.5
254 1 0.325 0.625948 0.5
255 1 0.35 0.577817 0.5
256 1 0.375 0.625948 0.5
257 1 0.4 0.577817 0.5
258 1 0.425 0.625948 0.5
259 1 0.45 0.577817 0.5
260 1 0.475 0.625948 0.5
261 1 0.5 0.577817 0.5
262 1 0.525 0.625948 0.5
263 1 0.55 0.577817 0.5
264 1 0.575 0.625948 0.5
265 1 0.6 0.577817 0.5
266 1 0.625 0.625948 0.5
267 1 0.65 0.577817 0.5
268 1 0.675 0.625948 0.5
269 1 0.7 0.577817 0.5
270 1 0.725 0.625948 0.5
271 1 0.75 0.577817 0.5
272 1 0.775 0.625948 0.5
273 1 0.8 0.577817 0.5
274 1 0.825 0.625948 0.5
275 1 0.85 0.577817 0.5
276 1 0.875 0.625948 0.5
277 1 0.9 0.577817 0.5
278 1 0.925 0.625948 0.5
279 1 0.95 0.577817 0.5
280 1 0.975 0.625948 0.5
281 1 1.89763e-18 0.674085 0.5
282 1 0.025 0.722219 0.5
283 1 0.05 0.674085 0.5
284 1 0.075 0.722219 0.5
285 1 0.1 0.674085 0.5
286 1 0.125 0.722219 0.5
287 1 0.15 0.674085 0.5
288 1 0.175 0.722219 0.5
289 1 0.2 0.674085 0.5
290 1 0.225 0.722219 0.5
291 1 0.25 0.674085 0.5
292 1 0.275 0.722219 0.5
293 1 0.3 0.674085 0.5
294 1 0.325 0.722219 0.5
295 1 0.35 0.674085 0.5
296 1 0.375 0.722219 0.5
297 1 0.4 0.674085 0.5
298 1 0.425 0.722219 0.5
299 1 0.45 0.674085 0.5
300 1 0.475 0.722219 0.5
301 1 0.5 0.674085 0.5
302 1 0.525 0.722219 0.5
303 1 0.55 0.674085 0.5
304 1 0.575 0.722219 0.5
305 1 0.6 0.674085 0.5
306 1 0.625 0.722219 0.5
307 1 0.65 0.674085 0.5
308 1 0.675 0.722219 0.5
309 1 0.7 0.674085 0.5
310 1 0.725 0.722219 0.5
311 1 0.75 0.674085 0.5
312 1 0.775 0.722219 0.5
313 1 0.8 0.674085 0.5
314 1 0.825 0.722219 0.5
315 1 0.85 0.674085 0.5
316 1 0.875 0.722219 0.5
317 1 0.9 0.674085 0.5
318 1 0.925 0.722219 0.5
319 1 0.95 0.674085 0.5
320 1 0.975 0.722219 0.5
321 1 4.28459e-18 0.770344 0.5
322 1 0.025 0.818472 0.5
323 1 0.05 0.770344 0.5
324 1 0.075 0.818472 0.5
325 1 0.1 0.770344 0.5
326 1 0.125 0.818472 0.5
327 1 0.15 0.770344 0.5
328 1 0.175 0.818472 0.5
329 1 0.2 0.770344 0.5
330 1 0.225 0.818472 0.5
331 1 0.25 0.770344 0.5
332 1 0.275 0.818472 0.5
333 1 0.3 0.770344 0.5
334 1 0.325 0.818472 0.5
335 1 0.35 0.770344 0.5
336 1 0.375 0.818472 0.5
337 1 0.4 0.770344 0.5
338 1 0.425 0.818472 0.5
339 1 0.45 0.770344 0.5
340 1 0.475 0.818472 0.5
341 1 0.5 0.770344 0.5
342 1 0.525 0.818472 0.5
343 1 0.55 0.770344 0.5
344 1 0.575 0.818472 0.5
345 1 0.6 0.770344 0.5
346 1 0.625 0.818472 0.5
347 1 0.65 0.770344 0.5
348 1 0.675 0.818472 0.5
349 1 0.7 0.770344 0.5
350 1 0.725 0.818472 0.5
351 1 0.75 0.770344 0.5
352 1 0.775 0.818472 0.5
353 1 0.8 0.770344 0.5
354 1 0.825 0.818472 0.5
355 1 0.85 0.770344 0.5
356 1 0.875 0.818472 0.5
357 1 0.9 0.770344 0.5
358 1 0.925 0.818472 0.5
359 1 0.95 0.770344 0.5
360 1 0.975 0.818472 0.5
361 1 0 0.866577 0.5
362 1 0.025 0.914691 0.5
363 1 0.05 0.866577 0.5
364 1 0.075 0.914691 0.5
365 1 0.1 0.866577 0.5
366 1 0.125 0.914691 0.5
367 1 0.15 0.866577 0.5
368 1 0.175 0.914691 0.5
369 1 0.2 0.866577 0.5
370 1 0.225 0.914691 0.5
371 1 0.25 0.866577 0.5
372 1 0.275 0.914691 0.5
373 1 0.3 0.866577 0.5
374 1 0.325 0.914691 0.5
375 1 0.35 0.866577 0.5
376 1 0.375 0.914691 0.5
377 1 0.4 0.866577 0.5
378 1 0.425 0.914691 0.5
393 1 0.8 0.866577 0.5
394 1 0.825 0.914691 0.5
395 1 0.85 0.866577 0.5
396 1 0.875 0.914691 0.5
397 1 0.9 0.866577 0.5
398 1 0.925 0.914691 0.5
399 1 0.95 0.866577 0.5
400 1 0.975 0.914691 0.5
401 1 2.28651e-18 0.963003 0.5
402 1 0.05 0.963003 0.5
403 1 0.1 0.963003 0.5
404 1 0.15 0.963003 0.5
405 1 0.2 0.963003 0.5
406 1 0.25 0.963003 0.5
407 1 0.3 0.963003 0.5
408 1 0.35 0.963003 0.5
409 1 0.4 0.963003 0.5
417 1 0.8 0.963003 0.5
418 1 0.85 0.963003 0.5
419 1 0.9 0.963003 0.5
420 1 0.95 0.963003 0.5
ITEM: TIMESTEP
10
ITEM: NUMBER OF ATOMS
399
ITEM: BOX BOUNDS pp ss pp
0.0000000000000000e+00 2.2653923264628304e+01
2.1918578738844549e-01 2.0278214049749494e+01
-2.8317404080785380e-01 2.8317404080785380e-01
ITEM: ATOMS id type xs ys zs
1 2 8.07463e-18 9.78253e-05 0.5
2 2 0.025 0.0480635 0.5
3 2 0.05 9.78253e-05 0.5
4 2 0.075 0.0480635 0.5
5 2 0.1 9.78253e-05 0.5
6 2 0.125 0.0480635 0.5
7 2 0.15 9.78253e-05 0.5
8 2 0.175 0.0480635 0.5
9 2 0.2 9.78253e-05 0.5
10 2 0.225 0.0480635 0.5
11 2 0.25 9.78253e-05 0.5
12 2 0.275 0.0480635 0.5
13 2 0.3 9.78253e-05 0.5
14 2 0.325 0.0480635 0.5
15 2 0.35 9.78253e-05 0.5
16 2 0.375 0.0480635 0.5
17 2 0.4 9.78253e-05 0.5
18 2 0.425 0.0480635 0.5
19 2 0.45 9.78253e-05 0.5
20 2 0.475 0.0480635 0.5
21 2 0.5 9.78253e-05 0.5
22 2 0.525 0.0480635 0.5
23 2 0.55 9.78253e-05 0.5
24 2 0.575 0.0480635 0.5
25 2 0.6 9.78253e-05 0.5
26 2 0.625 0.0480635 0.5
27 2 0.65 9.78253e-05 0.5
28 2 0.675 0.0480635 0.5
29 2 0.7 9.78253e-05 0.5
30 2 0.725 0.0480635 0.5
31 2 0.75 9.78253e-05 0.5
32 2 0.775 0.0480635 0.5
33 2 0.8 9.78253e-05 0.5
34 2 0.825 0.0480635 0.5
35 2 0.85 9.78253e-05 0.5
36 2 0.875 0.0480635 0.5
37 2 0.9 9.78253e-05 0.5
38 2 0.925 0.0480635 0.5
39 2 0.95 9.78253e-05 0.5
40 2 0.975 0.0480635 0.5
41 2 1.06974e-17 0.0958326 0.5
42 1 0.025 0.143603 0.5
43 2 0.05 0.0958326 0.5
44 1 0.075 0.143603 0.5
45 2 0.1 0.0958326 0.5
46 1 0.125 0.143603 0.5
47 2 0.15 0.0958326 0.5
48 1 0.175 0.143603 0.5
49 2 0.2 0.0958326 0.5
50 1 0.225 0.143603 0.5
51 2 0.25 0.0958326 0.5
52 1 0.275 0.143603 0.5
53 2 0.3 0.0958326 0.5
54 1 0.325 0.143603 0.5
55 2 0.35 0.0958326 0.5
56 1 0.375 0.143603 0.5
57 2 0.4 0.0958326 0.5
58 1 0.425 0.143603 0.5
59 2 0.45 0.0958326 0.5
60 1 0.475 0.143603 0.5
61 2 0.5 0.0958326 0.5
62 1 0.525 0.143603 0.5
63 2 0.55 0.0958326 0.5
64 1 0.575 0.143603 0.5
65 2 0.6 0.0958326 0.5
66 1 0.625 0.143603 0.5
67 2 0.65 0.0958326 0.5
68 1 0.675 0.143603 0.5
69 2 0.7 0.0958326 0.5
70 1 0.725 0.143603 0.5
71 2 0.75 0.0958326 0.5
72 1 0.775 0.143603 0.5
73 2 0.8 0.0958326 0.5
74 1 0.825 0.143603 0.5
75 2 0.85 0.0958326 0.5
76 1 0.875 0.143603 0.5
77 2 0.9 0.0958326 0.5
78 1 0.925 0.143603 0.5
79 2 0.95 0.0958326 0.5
80 1 0.975 0.143603 0.5
81 1 2.79462e-19 0.191379 0.5
82 1 0.025 0.239161 0.5
83 1 0.05 0.191379 0.5
84 1 0.075 0.239161 0.5
85 1 0.1 0.191379 0.5
86 1 0.125 0.239161 0.5
87 1 0.15 0.191379 0.5
88 1 0.175 0.239161 0.5
89 1 0.2 0.191379 0.5
90 1 0.225 0.239161 0.5
91 1 0.25 0.191379 0.5
92 1 0.275 0.239161 0.5
93 1 0.3 0.191379 0.5
94 1 0.325 0.239161 0.5
95 1 0.35 0.191379 0.5
96 1 0.375 0.239161 0.5
97 1 0.4 0.191379 0.5
98 1 0.425 0.239161 0.5
99 1 0.45 0.191379 0.5
100 1 0.475 0.239161 0.5
101 1 0.5 0.191379 0.5
102 1 0.525 0.239161 0.5
103 1 0.55 0.191379 0.5
104 1 0.575 0.239161 0.5
105 1 0.6 0.191379 0.5
106 1 0.625 0.239161 0.5
107 1 0.65 0.191379 0.5
108 1 0.675 0.239161 0.5
109 1 0.7 0.191379 0.5
110 1 0.725 0.239161 0.5
111 1 0.75 0.191379 0.5
112 1 0.775 0.239161 0.5
113 1 0.8 0.191379 0.5
114 1 0.825 0.239161 0.5
115 1 0.85 0.191379 0.5
116 1 0.875 0.239161 0.5
117 1 0.9 0.191379 0.5
118 1 0.925 0.239161 0.5
119 1 0.95 0.191379 0.5
120 1 0.975 0.239161 0.5
121 1 5.18412e-18 0.286948 0.5
122 1 0.025 0.334736 0.5
123 1 0.05 0.286948 0.5
124 1 0.075 0.334736 0.5
125 1 0.1 0.286948 0.5
126 1 0.125 0.334736 0.5
127 1 0.15 0.286948 0.5
128 1 0.175 0.334736 0.5
129 1 0.2 0.286948 0.5
130 1 0.225 0.334736 0.5
131 1 0.25 0.286948 0.5
132 1 0.275 0.334736 0.5
133 1 0.3 0.286948 0.5
134 1 0.325 0.334736 0.5
135 1 0.35 0.286948 0.5
136 1 0.375 0.334736 0.5
137 1 0.4 0.286948 0.5
138 1 0.425 0.334736 0.5
139 1 0.45 0.286948 0.5
140 1 0.475 0.334736 0.5
141 1 0.5 0.286948 0.5
142 1 0.525 0.334736 0.5
143 1 0.55 0.286948 0.5
144 1 0.575 0.334736 0.5
145 1 0.6 0.286948 0.5
146 1 0.625 0.334736 0.5
147 1 0.65 0.286948 0.5
148 1 0.675 0.334736 0.5
149 1 0.7 0.286948 0.5
150 1 0.725 0.334736 0.5
151 1 0.75 0.286948 0.5
152 1 0.775 0.334736 0.5
153 1 0.8 0.286948 0.5
154 1 0.825 0.334736 0.5
155 1 0.85 0.286948 0.5
156 1 0.875 0.334736 0.5
157 1 0.9 0.286948 0.5
158 1 0.925 0.334736 0.5
159 1 0.95 0.286948 0.5
160 1 0.975 0.334736 0.5
161 1 -8.7557e-19 0.382524 0.5
162 1 0.025 0.430313 0.5
163 1 0.05 0.382524 0.5
164 1 0.075 0.430313 0.5
165 1 0.1 0.382524 0.5
166 1 0.125 0.430313 0.5
167 1 0.15 0.382524 0.5
168 1 0.175 0.430313 0.5
169 1 0.2 0.382524 0.5
170 1 0.225 0.430313 0.5
171 1 0.25 0.382524 0.5
172 1 0.275 0.430313 0.5
173 1 0.3 0.382524 0.5
174 1 0.325 0.430313 0.5
175 1 0.35 0.382524 0.5
176 1 0.375 0.430313 0.5
177 1 0.4 0.382524 0.5
178 1 0.425 0.430313 0.5
179 1 0.45 0.382524 0.5
180 1 0.475 0.430313 0.5
181 1 0.5 0.382524 0.5
182 1 0.525 0.430313 0.5
183 1 0.55 0.382524 0.5
184 1 0.575 0.430313 0.5
185 1 0.6 0.382524 0.5
186 1 0.625 0.430313 0.5
187 1 0.65 0.382524 0.5
188 1 0.675 0.430313 0.5
189 1 0.7 0.382524 0.5
190 1 0.725 0.430313 0.5
191 1 0.75 0.382524 0.5
192 1 0.775 0.430313 0.5
193 1 0.8 0.382524 0.5
194 1 0.825 0.430313 0.5
195 1 0.85 0.382524 0.5
196 1 0.875 0.430313 0.5
197 1 0.9 0.382524 0.5
198 1 0.925 0.430313 0.5
199 1 0.95 0.382524 0.5
200 1 0.975 0.430313 0.5
201 1 -1.26405e-18 0.478101 0.5
202 1 0.025 0.52589 0.5
203 1 0.05 0.478101 0.5
204 1 0.075 0.52589 0.5
205 1 0.1 0.478101 0.5
206 1 0.125 0.52589 0.5
207 1 0.15 0.478101 0.5
208 1 0.175 0.52589 0.5
209 1 0.2 0.478101 0.5
210 1 0.225 0.52589 0.5
211 1 0.25 0.478101 0.5
212 1 0.275 0.52589 0.5
213 1 0.3 0.478101 0.5
214 1 0.325 0.52589 0.5
215 1 0.35 0.478101 0.5
216 1 0.375 0.52589 0.5
217 1 0.4 0.478101 0.5
218 1 0.425 0.52589 0.5
219 1 0.45 0.478101 0.5
220 1 0.475 0.52589 0.5
221 1 0.5 0.478101 0.5
222 1 0.525 0.52589 0.5
223 1 0.55 0.478101 0.5
224 1 0.575 0.52589 0.5
225 1 0.6 0.478101 0.5
226 1 0.625 0.52589 0.5
227 1 0.65 0.478101 0.5
228 1 0.675 0.52589 0.5
229 1 0.7 0.478101 0.5
230 1 0.725 0.52589 0.5
231 1 0.75 0.478101 0.5
232 1 0.775 0.52589 0.5
233 1 0.8 0.478101 0.5
234 1 0.825 0.52589 0.5
235 1 0.85 0.478101 0.5
236 1 0.875 0.52589 0.5
237 1 0.9 0.478101 0.5
238 1 0.925 0.52589 0.5
239 1 0.95 0.478101 0.5
240 1 0.975 0.52589 0.5
241 1 -1.56951e-20 0.573679 0.5
242 1 0.025 0.621467 0.5
243 1 0.05 0.573679 0.5
244 1 0.075 0.621467 0.5
245 1 0.1 0.573679 0.5
246 1 0.125 0.621467 0.5
247 1 0.15 0.573679 0.5
248 1 0.175 0.621467 0.5
249 1 0.2 0.573679 0.5
250 1 0.225 0.621467 0.5
251 1 0.25 0.573679 0.5
252 1 0.275 0.621467 0.5
253 1 0.3 0.573679 0.5
254 1 0.325 0.621467 0.5
255 1 0.35 0.573679 0.5
256 1 0.375 0.621467 0.5
257 1 0.4 0.573679 0.5
258 1 0.425 0.621467 0.5
259 1 0.45 0.573679 0.5
260 1 0.475 0.621467 0.5
261 1 0.5 0.573679 0.5
262 1 0.525 0.621467 0.5
263 1 0.55 0.573679 0.5
264 1 0.575 0.621467 0.5
265 1 0.6 0.573679 0.5
266 1 0.625 0.621467 0.5
267 1 0.65 0.573679 0.5
268 1 0.675 0.621467 0.5
269 1 0.7 0.573679 0.5
270 1 0.725 0.621467 0.5
271 1 0.75 0.573679 0.5
272 1 0.775 0.621467 0.5
273 1 0.8 0.573679 0.5
274 1 0.825 0.621467 0.5
275 1 0.85 0.573679 0.5
276 1 0.875 0.621467 0.5
277 1 0.9 0.573679 0.5
278 1 0.925 0.621467 0.5
279 1 0.95 0.573679 0.5
280 1 0.975 0.621467 0.5
281 1 2.18907e-18 0.669255 0.5
282 1 0.025 0.717042 0.5
283 1 0.05 0.669255 0.5
284 1 0.075 0.717042 0.5
285 1 0.1 0.669255 0.5
286 1 0.125 0.717042 0.5
287 1 0.15 0.669255 0.5
288 1 0.175 0.717042 0.5
289 1 0.2 0.669255 0.5
290 1 0.225 0.717042 0.5
291 1 0.25 0.669255 0.5
292 1 0.275 0.717042 0.5
293 1 0.3 0.669255 0.5
294 1 0.325 0.717042 0.5
295 1 0.35 0.669255 0.5
296 1 0.375 0.717042 0.5
297 1 0.4 0.669255 0.5
298 1 0.425 0.717042 0.5
299 1 0.45 0.669255 0.5
300 1 0.475 0.717042 0.5
301 1 0.5 0.669255 0.5
302 1 0.525 0.717042 0.5
303 1 0.55 0.669255 0.5
304 1 0.575 0.717042 0.5
305 1 0.6 0.669255 0.5
306 1 0.625 0.717042 0.5
307 1 0.65 0.669255 0.5
308 1 0.675 0.717042 0.5
309 1 0.7 0.669255 0.5
310 1 0.725 0.717042 0.5
311 1 0.75 0.669255 0.5
312 1 0.775 0.717042 0.5
313 1 0.8 0.669255 0.5
314 1 0.825 0.717042 0.5
315 1 0.85 0.669255 0.5
316 1 0.875 0.717042 0.5
317 1 0.9 0.669255 0.5
318 1 0.925 0.717042 0.5
319 1 0.95 0.669255 0.5
320 1 0.975 0.717042 0.5
321 1 1.39782e-18 0.764824 0.5
322 1 0.025 0.8126 0.5
323 1 0.05 0.764824 0.5
324 1 0.075 0.8126 0.5
325 1 0.1 0.764824 0.5
326 1 0.125 0.8126 0.5
327 1 0.15 0.764824 0.5
328 1 0.175 0.8126 0.5
329 1 0.2 0.764824 0.5
330 1 0.225 0.8126 0.5
331 1 0.25 0.764824 0.5
332 1 0.275 0.8126 0.5
333 1 0.3 0.764824 0.5
334 1 0.325 0.8126 0.5
335 1 0.35 0.764824 0.5
336 1 0.375 0.8126 0.5
337 1 0.4 0.764824 0.5
338 1 0.425 0.8126 0.5
339 1 0.45 0.764824 0.5
340 1 0.475 0.812599 0.5
341 1 0.5 0.764824 0.5
342 1 0.524946 0.812495 0.5
343 1 0.55 0.764826 0.5
344 1 0.574988 0.812477 0.5
345 1 0.600001 0.764827 0.5
346 1 0.624945 0.812412 0.5
347 1 0.65 0.764829 0.5
348 1 0.675196 0.812226 0.5
349 1 0.699999 0.764825 0.5
350 1 0.724997 0.812603 0.5
351 1 0.75 0.764824 0.5
352 1 0.775 0.8126 0.5
353 1 0.8 0.764824 0.5
354 1 0.825 0.8126 0.5
355 1 0.85 0.764824 0.5
356 1 0.875 0.8126 0.5
357 1 0.9 0.764824 0.5
358 1 0.925 0.8126 0.5
359 1 0.95 0.764824 0.5
360 1 0.975 0.8126 0.5
361 1 1.89865e-17 0.86037 0.5
362 1 0.025 0.90814 0.5
363 1 0.05 0.86037 0.5
364 1 0.075 0.90814 0.5
365 1 0.1 0.86037 0.5
366 1 0.125 0.90814 0.5
367 1 0.15 0.86037 0.5
368 1 0.175 0.90814 0.5
369 1 0.2 0.86037 0.5
370 1 0.225 0.90814 0.5
371 1 0.25 0.86037 0.5
372 1 0.275 0.90814 0.5
373 1 0.3 0.86037 0.5
374 1 0.325 0.90814 0.5
375 1 0.35 0.86037 0.5
376 1 0.375 0.908139 0.5
377 1 0.4 0.86037 0.5
378 1 0.424995 0.908138 0.5
393 1 0.8 0.86037 0.5
394 1 0.825 0.90814 0.5
395 1 0.85 0.86037 0.5
396 1 0.875 0.90814 0.5
397 1 0.9 0.86037 0.5
398 1 0.925 0.90814 0.5
399 1 0.95 0.86037 0.5
400 1 0.975 0.90814 0.5
401 1 -1.87309e-16 0.956113 0.5
402 1 0.05 0.956113 0.5
403 1 0.1 0.956113 0.5
404 1 0.15 0.956113 0.5
405 1 0.2 0.956113 0.5
406 1 0.25 0.956113 0.5
407 1 0.3 0.956113 0.5
408 1 0.35 0.956113 0.5
409 1 0.399997 0.956113 0.5
417 1 0.8 0.956113 0.5
418 1 0.85 0.956113 0.5
419 1 0.9 0.956113 0.5
420 1 0.95 0.956113 0.5
ITEM: TIMESTEP
20
ITEM: NUMBER OF ATOMS
399
ITEM: BOX BOUNDS pp ss pp
0.0000000000000000e+00 2.2653923264628304e+01
2.1918578738844549e-01 2.0278214049749494e+01
-2.8317404080785380e-01 2.8317404080785380e-01
ITEM: ATOMS id type xs ys zs
1 2 8.07463e-18 9.78253e-05 0.5
2 2 0.025 0.0480635 0.5
3 2 0.05 9.78253e-05 0.5
4 2 0.075 0.0480635 0.5
5 2 0.1 9.78253e-05 0.5
6 2 0.125 0.0480635 0.5
7 2 0.15 9.78253e-05 0.5
8 2 0.175 0.0480635 0.5
9 2 0.2 9.78253e-05 0.5
10 2 0.225 0.0480635 0.5
11 2 0.25 9.78253e-05 0.5
12 2 0.275 0.0480635 0.5
13 2 0.3 9.78253e-05 0.5
14 2 0.325 0.0480635 0.5
15 2 0.35 9.78253e-05 0.5
16 2 0.375 0.0480635 0.5
17 2 0.4 9.78253e-05 0.5
18 2 0.425 0.0480635 0.5
19 2 0.45 9.78253e-05 0.5
20 2 0.475 0.0480635 0.5
21 2 0.5 9.78253e-05 0.5
22 2 0.525 0.0480635 0.5
23 2 0.55 9.78253e-05 0.5
24 2 0.575 0.0480635 0.5
25 2 0.6 9.78253e-05 0.5
26 2 0.625 0.0480635 0.5
27 2 0.65 9.78253e-05 0.5
28 2 0.675 0.0480635 0.5
29 2 0.7 9.78253e-05 0.5
30 2 0.725 0.0480635 0.5
31 2 0.75 9.78253e-05 0.5
32 2 0.775 0.0480635 0.5
33 2 0.8 9.78253e-05 0.5
34 2 0.825 0.0480635 0.5
35 2 0.85 9.78253e-05 0.5
36 2 0.875 0.0480635 0.5
37 2 0.9 9.78253e-05 0.5
38 2 0.925 0.0480635 0.5
39 2 0.95 9.78253e-05 0.5
40 2 0.975 0.0480635 0.5
41 2 1.06974e-17 0.0958326 0.5
42 1 0.025 0.143611 0.5
43 2 0.05 0.0958326 0.5
44 1 0.075 0.143611 0.5
45 2 0.1 0.0958326 0.5
46 1 0.125 0.143611 0.5
47 2 0.15 0.0958326 0.5
48 1 0.175 0.143611 0.5
49 2 0.2 0.0958326 0.5
50 1 0.225 0.143611 0.5
51 2 0.25 0.0958326 0.5
52 1 0.275 0.143611 0.5
53 2 0.3 0.0958326 0.5
54 1 0.325 0.143611 0.5
55 2 0.35 0.0958326 0.5
56 1 0.375 0.143611 0.5
57 2 0.4 0.0958326 0.5
58 1 0.425 0.143611 0.5
59 2 0.45 0.0958326 0.5
60 1 0.475 0.143611 0.5
61 2 0.5 0.0958326 0.5
62 1 0.525 0.143611 0.5
63 2 0.55 0.0958326 0.5
64 1 0.575 0.143611 0.5
65 2 0.6 0.0958326 0.5
66 1 0.625 0.143611 0.5
67 2 0.65 0.0958326 0.5
68 1 0.675 0.143611 0.5
69 2 0.7 0.0958326 0.5
70 1 0.725 0.143611 0.5
71 2 0.75 0.0958326 0.5
72 1 0.775 0.143611 0.5
73 2 0.8 0.0958326 0.5
74 1 0.825 0.143611 0.5
75 2 0.85 0.0958326 0.5
76 1 0.875 0.143611 0.5
77 2 0.9 0.0958326 0.5
78 1 0.925 0.143611 0.5
79 2 0.95 0.0958326 0.5
80 1 0.975 0.143611 0.5
81 1 -2.17555e-18 0.191391 0.5
82 1 0.025 0.239172 0.5
83 1 0.05 0.191391 0.5
84 1 0.075 0.239172 0.5
85 1 0.1 0.191391 0.5
86 1 0.125 0.239172 0.5
87 1 0.15 0.191391 0.5
88 1 0.175 0.239172 0.5
89 1 0.2 0.191391 0.5
90 1 0.225 0.239172 0.5
91 1 0.25 0.191391 0.5
92 1 0.275 0.239172 0.5
93 1 0.3 0.191391 0.5
94 1 0.325 0.239172 0.5
95 1 0.35 0.191391 0.5
96 1 0.375 0.239172 0.5
97 1 0.4 0.191391 0.5
98 1 0.425 0.239172 0.5
99 1 0.45 0.191391 0.5
100 1 0.475 0.239172 0.5
101 1 0.5 0.191391 0.5
102 1 0.525 0.239172 0.5
103 1 0.55 0.191391 0.5
104 1 0.575 0.239172 0.5
105 1 0.6 0.191391 0.5
106 1 0.625 0.239172 0.5
107 1 0.65 0.191391 0.5
108 1 0.675 0.239172 0.5
109 1 0.7 0.191391 0.5
110 1 0.725 0.239172 0.5
111 1 0.75 0.191391 0.5
112 1 0.775 0.239172 0.5
113 1 0.8 0.191391 0.5
114 1 0.825 0.239172 0.5
115 1 0.85 0.191391 0.5
116 1 0.875 0.239172 0.5
117 1 0.9 0.191391 0.5
118 1 0.925 0.239172 0.5
119 1 0.95 0.191391 0.5
120 1 0.975 0.239172 0.5
121 1 -2.12552e-15 0.286955 0.5
122 1 0.025 0.33474 0.5
123 1 0.05 0.286955 0.5
124 1 0.075 0.33474 0.5
125 1 0.1 0.286955 0.5
126 1 0.125 0.33474 0.5
127 1 0.15 0.286955 0.5
128 1 0.175 0.33474 0.5
129 1 0.2 0.286955 0.5
130 1 0.225 0.33474 0.5
131 1 0.25 0.286955 0.5
132 1 0.275 0.33474 0.5
133 1 0.3 0.286955 0.5
134 1 0.325 0.33474 0.5
135 1 0.35 0.286955 0.5
136 1 0.375 0.33474 0.5
137 1 0.4 0.286955 0.5
138 1 0.425 0.33474 0.5
139 1 0.45 0.286955 0.5
140 1 0.475 0.33474 0.5
141 1 0.5 0.286955 0.5
142 1 0.525 0.33474 0.5
143 1 0.55 0.286955 0.5
144 1 0.575 0.33474 0.5
145 1 0.6 0.286955 0.5
146 1 0.625 0.33474 0.5
147 1 0.65 0.286955 0.5
148 1 0.675 0.33474 0.5
149 1 0.7 0.286955 0.5
150 1 0.725 0.33474 0.5
151 1 0.75 0.286955 0.5
152 1 0.775 0.33474 0.5
153 1 0.8 0.286955 0.5
154 1 0.825 0.33474 0.5
155 1 0.85 0.286955 0.5
156 1 0.875 0.33474 0.5
157 1 0.9 0.286955 0.5
158 1 0.925 0.33474 0.5
159 1 0.95 0.286955 0.5
160 1 0.975 0.33474 0.5
161 1 1.42481e-12 0.382526 0.5
162 1 0.025 0.430314 0.5
163 1 0.05 0.382526 0.5
164 1 0.075 0.430314 0.5
165 1 0.1 0.382526 0.5
166 1 0.125 0.430314 0.5
167 1 0.15 0.382526 0.5
168 1 0.175 0.430314 0.5
169 1 0.2 0.382526 0.5
170 1 0.225 0.430314 0.5
171 1 0.25 0.382526 0.5
172 1 0.275 0.430314 0.5
173 1 0.3 0.382526 0.5
174 1 0.325 0.430314 0.5
175 1 0.35 0.382526 0.5
176 1 0.375 0.430314 0.5
177 1 0.4 0.382526 0.5
178 1 0.425 0.430314 0.5
179 1 0.45 0.382526 0.5
180 1 0.475 0.430314 0.5
181 1 0.5 0.382526 0.5
182 1 0.525 0.430314 0.5
183 1 0.55 0.382526 0.5
184 1 0.575 0.430314 0.5
185 1 0.6 0.382526 0.5
186 1 0.625 0.430314 0.5
187 1 0.65 0.382526 0.5
188 1 0.675 0.430314 0.5
189 1 0.7 0.382526 0.5
190 1 0.725 0.430314 0.5
191 1 0.75 0.382526 0.5
192 1 0.775 0.430314 0.5
193 1 0.8 0.382526 0.5
194 1 0.825 0.430314 0.5
195 1 0.85 0.382526 0.5
196 1 0.875 0.430314 0.5
197 1 0.9 0.382526 0.5
198 1 0.925 0.430314 0.5
199 1 0.95 0.382526 0.5
200 1 0.975 0.430314 0.5
201 1 3.34957e-11 0.478101 0.5
202 1 0.025 0.525889 0.5
203 1 0.05 0.478101 0.5
204 1 0.075 0.525889 0.5
205 1 0.1 0.478101 0.5
206 1 0.125 0.525889 0.5
207 1 0.15 0.478101 0.5
208 1 0.175 0.525889 0.5
209 1 0.2 0.478101 0.5
210 1 0.225 0.525889 0.5
211 1 0.25 0.478101 0.5
212 1 0.275 0.525889 0.5
213 1 0.3 0.478101 0.5
214 1 0.325 0.525889 0.5
215 1 0.35 0.478101 0.5
216 1 0.375 0.525889 0.5
217 1 0.4 0.478101 0.5
218 1 0.424999 0.525888 0.5
219 1 0.45 0.478101 0.5
220 1 0.474999 0.525887 0.5
221 1 0.5 0.478101 0.5
222 1 0.524999 0.525886 0.5
223 1 0.55 0.478101 0.5
224 1 0.574999 0.525885 0.5
225 1 0.6 0.478101 0.5
226 1 0.625 0.525884 0.5
227 1 0.65 0.478101 0.5
228 1 0.675 0.525884 0.5
229 1 0.7 0.478101 0.5
230 1 0.725001 0.525885 0.5
231 1 0.75 0.478101 0.5
232 1 0.775001 0.525886 0.5
233 1 0.8 0.478101 0.5
234 1 0.825001 0.525887 0.5
235 1 0.85 0.478101 0.5
236 1 0.875 0.525889 0.5
237 1 0.9 0.478101 0.5
238 1 0.925 0.525889 0.5
239 1 0.95 0.478101 0.5
240 1 0.975 0.525889 0.5
241 1 -2.3225e-09 0.573676 0.5
242 1 0.025 0.621463 0.5
243 1 0.05 0.573676 0.5
244 1 0.075 0.621463 0.5
245 1 0.1 0.573676 0.5
246 1 0.125 0.621463 0.5
247 1 0.15 0.573676 0.5
248 1 0.175 0.621463 0.5
249 1 0.2 0.573676 0.5
250 1 0.225 0.621463 0.5
251 1 0.25 0.573676 0.5
252 1 0.275 0.621462 0.5
253 1 0.3 0.573676 0.5
254 1 0.324999 0.621462 0.5
255 1 0.349999 0.573676 0.5
256 1 0.374997 0.621458 0.5
257 1 0.399998 0.573673 0.5
258 1 0.424992 0.621449 0.5
259 1 0.449997 0.57367 0.5
260 1 0.474991 0.62144 0.5
261 1 0.499997 0.573667 0.5
262 1 0.524992 0.621432 0.5
263 1 0.549998 0.573665 0.5
264 1 0.574995 0.621426 0.5
265 1 0.599999 0.573663 0.5
266 1 0.624999 0.621423 0.5
267 1 0.65 0.573663 0.5
268 1 0.675004 0.621423 0.5
269 1 0.700002 0.573665 0.5
270 1 0.725011 0.621427 0.5
271 1 0.750004 0.573666 0.5
272 1 0.775014 0.621437 0.5
273 1 0.800004 0.57367 0.5
274 1 0.825007 0.621454 0.5
275 1 0.850002 0.573674 0.5
276 1 0.875002 0.621461 0.5
277 1 0.9 0.573676 0.5
278 1 0.925 0.621462 0.5
279 1 0.95 0.573676 0.5
280 1 0.975 0.621463 0.5
281 1 5.88644e-09 0.669247 0.5
282 1 0.025 0.71703 0.5
283 1 0.05 0.669247 0.5
284 1 0.075 0.71703 0.5
285 1 0.1 0.669247 0.5
286 1 0.125 0.71703 0.5
287 1 0.15 0.669247 0.5
288 1 0.175 0.71703 0.5
289 1 0.2 0.669247 0.5
290 1 0.225 0.71703 0.5
291 1 0.25 0.669247 0.5
292 1 0.274999 0.717029 0.5
293 1 0.299999 0.669246 0.5
294 1 0.324996 0.717027 0.5
295 1 0.349996 0.669243 0.5
296 1 0.374987 0.717018 0.5
297 1 0.399988 0.669233 0.5
298 1 0.424968 0.716994 0.5
299 1 0.449976 0.669209 0.5
300 1 0.474941 0.716938 0.5
301 1 0.499976 0.669192 0.5
302 1 0.524945 0.716901 0.5
303 1 0.549983 0.669181 0.5
304 1 0.57497 0.716879 0.5
305 1 0.599992 0.669175 0.5
306 1 0.625008 0.716859 0.5
307 1 0.650007 0.669171 0.5
308 1 0.675059 0.716846 0.5
309 1 0.700027 0.66917 0.5
310 1 0.725092 0.716873 0.5
311 1 0.750037 0.669186 0.5
312 1 0.775055 0.716963 0.5
313 1 0.800022 0.66922 0.5
314 1 0.825023 0.717011 0.5
315 1 0.850008 0.669241 0.5
316 1 0.875006 0.717026 0.5
317 1 0.900002 0.669246 0.5
318 1 0.925001 0.717029 0.5
319 1 0.95 0.669247 0.5
320 1 0.975 0.71703 0.5
321 1 5.78494e-08 0.76481 0.5
322 1 0.025 0.812588 0.5
323 1 0.05 0.76481 0.5
324 1 0.075 0.812588 0.5
325 1 0.1 0.76481 0.5
326 1 0.125 0.812588 0.5
327 1 0.15 0.76481 0.5
328 1 0.175 0.812588 0.5
329 1 0.2 0.76481 0.5
330 1 0.225 0.812588 0.5
331 1 0.249999 0.76481 0.5
332 1 0.274998 0.812587 0.5
333 1 0.299997 0.764808 0.5
334 1 0.324991 0.812583 0.5
335 1 0.349988 0.764802 0.5
336 1 0.374972 0.812572 0.5
337 1 0.399968 0.764784 0.5
338 1 0.424933 0.812539 0.5
339 1 0.44993 0.76474 0.5
340 1 0.474879 0.812476 0.5
341 1 0.499877 0.764633 0.5
342 1 0.524782 0.812244 0.5
343 1 0.549905 0.764579 0.5
344 1 0.574907 0.812109 0.5
345 1 0.599993 0.764547 0.5
346 1 0.625152 0.812008 0.5
347 1 0.650111 0.764508 0.5
348 1 0.675358 0.81201 0.5
349 1 0.700181 0.764534 0.5
350 1 0.725227 0.812353 0.5
351 1 0.750125 0.76468 0.5
352 1 0.775109 0.812521 0.5
353 1 0.800054 0.764773 0.5
354 1 0.825039 0.812575 0.5
355 1 0.850018 0.764801 0.5
356 1 0.875012 0.812586 0.5
357 1 0.900005 0.764808 0.5
358 1 0.925003 0.812588 0.5
359 1 0.950001 0.76481 0.5
360 1 0.975 0.812588 0.5
361 1 1.57187e-07 0.860365 0.5
362 1 0.025 0.908144 0.5
363 1 0.05 0.860365 0.5
364 1 0.075 0.908144 0.5
365 1 0.1 0.860365 0.5
366 1 0.125 0.908144 0.5
367 1 0.15 0.860365 0.5
368 1 0.175 0.908144 0.5
369 1 0.2 0.860365 0.5
370 1 0.224999 0.908144 0.5
371 1 0.249999 0.860365 0.5
372 1 0.274996 0.908143 0.5
373 1 0.299993 0.860363 0.5
374 1 0.324984 0.908141 0.5
375 1 0.349978 0.860357 0.5
376 1 0.374953 0.908134 0.5
377 1 0.399943 0.860337 0.5
378 1 0.424891 0.908106 0.5
393 1 0.800071 0.860355 0.5
394 1 0.825037 0.908152 0.5
395 1 0.850024 0.860365 0.5
396 1 0.875012 0.908146 0.5
397 1 0.900007 0.860365 0.5
398 1 0.925003 0.908144 0.5
399 1 0.950001 0.860365 0.5
400 1 0.975 0.908144 0.5
401 1 1.08403e-07 0.956124 0.5
402 1 0.05 0.956124 0.5
403 1 0.1 0.956124 0.5
404 1 0.15 0.956124 0.5
405 1 0.2 0.956124 0.5