ITEM: TIMESTEP
0
ITEM: NUMBER OF ATOMS
483
ITEM: BOX BOUNDS
0.0 22.653923264628304
0.2191857873884455 19.399687255162966
-0.2831740408078538 0.2831740408078538
ITEM: ATOMS id type x y z 
1 3 10.194265469082737 17.477379037059666 0.0 
2 3 10.760613550698444 18.43557934888528 0.0 
3 3 11.326961632314152 17.477379037059666 0.0 
4 3 11.89330971392986 18.43557934888528 0.0 
5 3 12.459657795545569 17.477379037059666 0.0 
6 3 13.026005877161273 18.43557934888528 0.0 
7 3 13.592353958776982 17.477379037059666 0.0 
8 3 14.15870204039269 18.43557934888528 0.0 
9 3 14.725050122008398 17.477379037059666 0.0 
10 3 15.291398203624107 18.43557934888528 0.0 
11 3 15.857746285239811 17.477379037059666 0.0 
12 3 16.42409436685552 18.43557934888528 0.0 
13 3 16.990442448471228 17.477379037059666 0.0 
14 3 17.556790530086936 18.43557934888528 0.0 
15 3 10.194265469082737 19.397730844013253 0.0 
16 3 11.326961632314152 19.397730844013253 0.0 
17 3 12.459657795545569 19.397730844013253 0.0 
18 3 13.592353958776982 19.397730844013253 0.0 
19 3 14.725050122008398 19.397730844013253 0.0 
20 3 15.857746285239811 19.397730844013253 0.0 
21 3 16.990442448471228 19.397730844013253 0.0 
22 3 10.194265469082737 17.477385443502257 0.0 
23 3 10.760613550698444 18.435585703500248 0.0 
24 3 11.326961632314152 17.477385443502257 0.0 
25 3 11.89330971392986 18.435585703500248 0.0 
26 3 12.459657795545569 17.477385443502257 0.0 
27 3 13.026005877161273 18.435585703500248 0.0 
28 3 13.592353958776982 17.477385443502257 0.0 
29 3 14.15870204039269 18.435585703500248 0.0 
30 3 14.725050122008398 17.477385443502257 0.0 
31 3 15.291398203624107 18.435585703500248 0.0 
32 3 15.857746285239811 17.477385443502257 0.0 
33 3 16.42409436685552 18.435585703500248 0.0 
34 3 16.990442448471228 17.477385443502257 0.0 
35 3 17.556790530086936 18.435585703500248 0.0 
36 3 10.194265469082737 19.397734644646377 0.0 
37 3 11.326961632314152 19.397734644646377 0.0 
38 3 12.973108966338367 19.765157470688287 0.0 
39 3 13.592353958776982 19.397734644646377 0.0 
40 3 14.725050122008398 19.397734644646377 0.0 
41 3 15.857746285239811 19.397734644646377 0.0 
42 3 16.990442448471228 19.397734644646377 0.0 
43 3 10.194265469082737 17.477371330443013 0.0 
44 3 10.760613550698444 18.435578551749977 0.0 
45 3 11.326961632314152 17.477371330443013 0.0 
46 3 11.89330971392986 18.435578551749977 0.0 
47 3 12.459657795545569 17.477371330443013 0.0 
48 3 13.026005877161273 18.435578551749977 0.0 
49 3 13.592353958776982 17.477371330443013 0.0 
50 3 14.15870204039269 18.435578551749977 0.0 
51 3 14.725050122008398 17.477371330443013 0.0 
52 3 15.291398203624107 18.435578551749977 0.0 
53 3 15.857746285239811 17.477371330443013 0.0 
54 3 16.42409436685552 18.435578551749977 0.0 
55 3 16.990442448471228 17.477371330443013 0.0 
56 3 17.556790530086936 18.435578551749977 0.0 
57 3 10.194265469082737 19.397729012650803 0.0 
58 3 11.326961632314152 19.397729012650803 0.0 
59 3 13.48656013713117 20.132565651711875 0.0 
60 3 13.592353958776982 19.397729012650803 0.0 
61 3 14.725050122008398 19.397729012650803 0.0 
62 3 15.857746285239811 19.397729012650803 0.0 
63 3 16.990442448471228 19.397729012650803 0.0 
64 3 10.194265469082737 17.477374366374452 0.0 
65 3 10.760613550698444 18.43557329342337 0.0 
66 3 11.326961632314152 17.477374366374452 0.0 
67 3 11.89330971392986 18.43557329342337 0.0 
68 3 12.459657795545569 17.477374366374452 0.0 
69 3 13.026005877161273 18.43557329342337 0.0 
70 3 13.592353958776982 17.477374366374452 0.0 
71 3 14.15870204039269 18.43557329342337 0.0 
72 3 14.725050122008398 17.477374366374452 0.0 
73 3 15.291398203624107 18.43557329342337 0.0 
74 3 15.857746285239811 17.477374366374452 0.0 
75 3 16.42409436685552 18.43557329342337 0.0 
76 3 16.990442448471228 17.477374366374452 0.0 
77 3 17.556790530086936 18.43557329342337 0.0 
78 3 10.194265469082737 19.397727361888286 0.0 
79 3 11.326961632314152 19.397727361888286 0.0 
80 3 14.000011307923968 20.499994850361965 0.0 
81 3 13.592353958776982 19.397727361888286 0.0 
82 3 14.725050122008398 19.397727361888286 0.0 
83 3 15.857746285239811 19.397727361888286 0.0 
84 3 16.990442448471228 19.397727361888286 0.0 
85 2 1.8292204841026564e-16 0.22114806777160764 0.0 
86 2 0.5663480816157076 1.1832936936661318 0.0 
87 2 1.1326961632314152 0.22114806777160764 0.0 
88 2 1.6990442448471228 1.1832936936661318 0.0 
89 2 2.2653923264628304 0.22114806777160764 0.0 
90 2 2.831740408078538 1.1832936936661318 0.0 
91 2 3.3980884896942456 0.22114806777160764 0.0 
92 2 3.9644365713099528 1.1832936936661318 0.0 
93 2 4.530784652925661 0.22114806777160764 0.0 
94 2 5.097132734541368 1.1832936936661318 0.0 
95 2 5.663480816157076 0.22114806777160764 0.0 
96 2 6.2298288977727845 1.1832936936661318 0.0 
97 2 6.796176979388491 0.22114806777160764 0.0 
98 2 7.362525061004199 1.1832936936661318 0.0 
99 2 7.9288731426199055 0.22114806777160764 0.0 
100 2 8.495221224235614 1.1832936936661318 0.0 
101 2 9.061569305851322 0.22114806777160764 0.0 
102 2 9.62791738746703 1.1832936936661318 0.0 
103 2 10.194265469082737 0.22114806777160764 0.0 
104 2 10.760613550698444 1.1832936936661318 0.0 
105 2 11.326961632314152 0.22114806777160764 0.0 
106 2 11.89330971392986 1.1832936936661318 0.0 
107 2 12.459657795545569 0.22114806777160764 0.0 
108 2 13.026005877161273 1.1832936936661318 0.0 
109 2 13.592353958776982 0.22114806777160764 0.0 
110 2 14.15870204039269 1.1832936936661318 0.0 
111 2 14.725050122008398 0.22114806777160764 0.0 
112 2 15.291398203624107 1.1832936936661318 0.0 
113 2 15.857746285239811 0.22114806777160764 0.0 
114 2 16.42409436685552 1.1832936936661318 0.0 
115 2 16.990442448471228 0.22114806777160764 0.0 
116 2 17.556790530086936 1.1832936936661318 0.0 
117 2 18.123138611702643 0.22114806777160764 0.0 
118 2 18.68948669331835 1.1832936936661318 0.0 
119 2 19.25583477493406 0.22114806777160764 0.0 
120 2 19.822182856549766 1.1832936936661318 0.0 
121 2 20.388530938165474 0.22114806777160764 0.0 
122 2 20.95487901978118 1.1832936936661318 0.0 
123 2 21.52122710139689 0.22114806777160764 0.0 
124 2 22.087575183012596 1.1832936936661318 0.0 
125 2 2.423380787310348e-16 2.1414940054917437 0.0 
126 1 0.5663480816157076 3.0995216928041454 0.0 
127 2 1.1326961632314152 2.1414940054917437 0.0 
128 1 1.6990442448471228 3.0995216928041454 0.0 
129 2 2.2653923264628304 2.1414940054917437 0.0 
130 1 2.831740408078538 3.0995216928041454 0.0 
131 2 3.3980884896942456 2.1414940054917437 0.0 
132 1 3.9644365713099528 3.0995216928041454 0.0 
133 2 4.530784652925661 2.1414940054917437 0.0 
134 1 5.097132734541368 3.0995216928041454 0.0 
135 2 5.663480816157076 2.1414940054917437 0.0 
136 1 6.2298288977727845 3.0995216928041454 0.0 
137 2 6.796176979388491 2.1414940054917437 0.0 
138 1 7.362525061004199 3.0995216928041454 0.0 
139 2 7.9288731426199055 2.1414940054917437 0.0 
140 1 8.495221224235614 3.0995216928041454 0.0 
141 2 9.061569305851322 2.1414940054917437 0.0 
142 1 9.62791738746703 3.0995216928041454 0.0 
143 2 10.194265469082737 2.1414940054917437 0.0 
144 1 10.760613550698444 3.0995216928041454 0.0 
145 2 11.326961632314152 2.1414940054917437 0.0 
146 1 11.89330971392986 3.0995216928041454 0.0 
147 2 12.459657795545569 2.1414940054917437 0.0 
148 1 13.026005877161273 3.0995216928041454 0.0 
149 2 13.592353958776982 2.1414940054917437 0.0 
150 1 14.15870204039269 3.0995216928041454 0.0 
151 2 14.725050122008398 2.1414940054917437 0.0 
152 1 15.291398203624107 3.0995216928041454 0.0 
153 2 15.857746285239811 2.1414940054917437 0.0 
154 1 16.42409436685552 3.0995216928041454 0.0 
155 2 16.990442448471228 2.1414940054917437 0.0 
156 1 17.556790530086936 3.0995216928041454 0.0 
157 2 18.123138611702643 2.1414940054917437 0.0 
158 1 18.68948669331835 3.0995216928041454 0.0 
159 2 19.25583477493406 2.1414940054917437 0.0 
160 1 19.822182856549766 3.0995216928041454 0.0 
161 2 20.388530938165474 2.1414940054917437 0.0 
162 1 20.95487901978118 3.0995216928041454 0.0 
163 2 21.52122710139689 2.1414940054917437 0.0 
164 1 22.087575183012596 3.0995216928041454 0.0 
165 1 5.216836065071664e-17 4.058009712151773 0.0 
166 1 0.5663480816157076 5.016459370496467 0.0 
167 1 1.1326961632314152 4.058009712151773 0.0 
168 1 1.6990442448471228 5.016459370496467 0.0 
169 1 2.2653923264628304 4.058009712151773 0.0 
170 1 2.831740408078538 5.016459370496467 0.0 
171 1 3.3980884896942456 4.058009712151773 0.0 
172 1 3.9644365713099528 5.016459370496467 0.0 
173 1 4.530784652925661 4.058009712151773 0.0 
174 1 5.097132734541368 5.016459370496467 0.0 
175 1 5.663480816157076 4.058009712151773 0.0 
176 1 6.2298288977727845 5.016459370496467 0.0 
177 1 6.796176979388491 4.058009712151773 0.0 
178 1 7.362525061004199 5.016459370496467 0.0 
179 1 7.9288731426199055 4.058009712151773 0.0 
180 1 8.495221224235614 5.016459370496467 0.0 
181 1 9.061569305851322 4.058009712151773 0.0 
182 1 9.62791738746703 5.016459370496467 0.0 
183 1 10.194265469082737 4.058009712151773 0.0 
184 1 10.760613550698444 5.016459370496467 0.0 
185 1 11.326961632314152 4.058009712151773 0.0 
186 1 11.89330971392986 5.016459370496467 0.0 
187 1 12.459657795545569 4.058009712151773 0.0 
188 1 13.026005877161273 5.016459370496467 0.0 
189 1 13.592353958776982 4.058009712151773 0.0 
190 1 14.15870204039269 5.016459370496467 0.0 
191 1 14.725050122008398 4.058009712151773 0.0 
192 1 15.291398203624107 5.016459370496467 0.0 
193 1 15.857746285239811 4.058009712151773 0.0 
194 1 16.42409436685552 5.016459370496467 0.0 
195 1 16.990442448471228 4.058009712151773 0.0 
196 1 17.556790530086936 5.016459370496467 0.0 
197 1 18.123138611702643 4.058009712151773 0.0 
198 1 18.68948669331835 5.016459370496467 0.0 
199 1 19.25583477493406 4.058009712151773 0.0 
200 1 19.822182856549766 5.016459370496467 0.0 
201 1 20.388530938165474 4.058009712151773 0.0 
202 1 20.95487901978118 5.016459370496467 0.0 
203 1 21.52122710139689 4.058009712151773 0.0 
204 1 22.087575183012596 5.016459370496467 0.0 
205 1 0.0 5.975043292351434 0.0 
206 1 0.5663480816157076 6.9337039362122725 0.0 
207 1 1.1326961632314152 5.975043292351434 0.0 
208 1 1.6990442448471228 6.9337039362122725 0.0 
209 1 2.2653923264628304 5.975043292351434 0.0 
210 1 2.831740408078538 6.9337039362122725 0.0 
211 1 3.3980884896942456 5.975043292351434 0.0 
212 1 3.9644365713099528 6.9337039362122725 0.0 
213 1 4.530784652925661 5.975043292351434 0.0 
214 1 5.097132734541368 6.9337039362122725 0.0 
215 1 5.663480816157076 5.975043292351434 0.0 
216 1 6.2298288977727845 6.9337039362122725 0.0 
217 1 6.796176979388491 5.975043292351434 0.0 
218 1 7.362525061004199 6.9337039362122725 0.0 
219 1 7.9288731426199055 5.975043292351434 0.0 
220 1 8.495221224235614 6.9337039362122725 0.0 
221 1 9.061569305851322 5.975043292351434 0.0 
222 1 9.62791738746703 6.9337039362122725 0.0 
223 1 10.194265469082737 5.975043292351434 0.0 
224 1 10.760613550698444 6.9337039362122725 0.0 
225 1 11.326961632314152 5.975043292351434 0.0 
226 1 11.89330971392986 6.9337039362122725 0.0 
227 1 12.459657795545569 5.975043292351434 0.0 
228 1 13.026005877161273 6.9337039362122725 0.0 
229 1 13.592353958776982 5.975043292351434 0.0 
230 1 14.15870204039269 6.9337039362122725 0.0 
231 1 14.725050122008398 5.975043292351434 0.0 
232 1 15.291398203624107 6.9337039362122725 0.0 
233 1 15.857746285239811 5.975043292351434 0.0 
234 1 16.42409436685552 6.9337039362122725 0.0 
235 1 16.990442448471228 5.975043292351434 0.0 
236 1 17.556790530086936 6.9337039362122725 0.0 
237 1 18.123138611702643 5.975043292351434 0.0 
238 1 18.68948669331835 6.9337039362122725 0.0 
239 1 19.25583477493406 5.975043292351434 0.0 
240 1 19.822182856549766 6.9337039362122725 0.0 
241 1 20.388530938165474 5.975043292351434 0.0 
242 1 20.95487901978118 6.9337039362122725 0.0 
243 1 21.52122710139689 5.975043292351434 0.0 
244 1 22.087575183012596 6.9337039362122725 0.0 
245 1 0.0 7.892249497064304 0.0 
246 1 0.5663480816157076 8.850814238417804 0.0 
247 1 1.1326961632314152 7.892249497064304 0.0 
248 1 1.6990442448471228 8.850814238417804 0.0 
249 1 2.2653923264628304 7.892249497064304 0.0 
250 1 2.831740408078538 8.850814238417804 0.0 
251 1 3.3980884896942456 7.892249497064304 0.0 
252 1 3.9644365713099528 8.850814238417804 0.0 
253 1 4.530784652925661 7.892249497064304 0.0 
254 1 5.097132734541368 8.850814238417804 0.0 
255 1 5.663480816157076 7.892249497064304 0.0 
256 1 6.2298288977727845 8.850814238417804 0.0 
257 1 6.796176979388491 7.892249497064304 0.0 
258 1 7.362525061004199 8.850814238417804 0.0 
259 1 7.9288731426199055 7.892249497064304 0.0 
260 1 8.495221224235614 8.850814238417804 0.0 
261 1 9.061569305851322 7.892249497064304 0.0 
262 1 9.62791738746703 8.850814238417804 0.0 
263 1 10.194265469082737 7.892249497064304 0.0 
264 1 10.760613550698444 8.850814238417804 0.0 
265 1 11.326961632314152 7.892249497064304 0.0 
266 1 11.89330971392986 8.850814238417804 0.0 
267 1 12.459657795545569 7.892249497064304 0.0 
268 1 13.026005877161273 8.850814238417804 0.0 
269 1 13.592353958776982 7.892249497064304 0.0 
270 1 14.15870204039269 8.850814238417804 0.0 
271 1 14.725050122008398 7.892249497064304 0.0 
272 1 15.291398203624107 8.850814238417804 0.0 
273 1 15.857746285239811 7.892249497064304 0.0 
274 1 16.42409436685552 8.850814238417804 0.0 
275 1 16.990442448471228 7.892249497064304 0.0 
276 1 17.556790530086936 8.850814238417804 0.0 
277 1 18.123138611702643 7.892249497064304 0.0 
278 1 18.68948669331835 8.850814238417804 0.0 
279 1 19.25583477493406 7.892249497064304 0.0 
280 1 19.822182856549766 8.850814238417804 0.0 
281 1 20.388530938165474 7.892249497064304 0.0 
282 1 20.95487901978118 8.850814238417804 0.0 
283 1 21.52122710139689 7.892249497064304 0.0 
284 1 22.087575183012596 8.850814238417804 0.0 
285 1 2.46685366605517e-17 9.809436521275707 0.0 
286 1 0.5663480816157076 10.76805880413361 0.0 
287 1 1.1326961632314152 9.809436521275707 0.0 
288 1 1.6990442448471228 10.76805880413361 0.0 
289 1 2.2653923264628304 9.809436521275707 0.0 
290 1 2.831740408078538 10.76805880413361 0.0 
291 1 3.3980884896942456 9.809436521275707 0.0 
292 1 3.9644365713099528 10.76805880413361 0.0 
293 1 4.530784652925661 9.809436521275707 0.0 
294 1 5.097132734541368 10.76805880413361 0.0 
295 1 5.663480816157076 9.809436521275707 0.0 
296 1 6.2298288977727845 10.76805880413361 0.0 
297 1 6.796176979388491 9.809436521275707 0.0 
298 1 7.362525061004199 10.76805880413361 0.0 
299 1 7.9288731426199055 9.809436521275707 0.0 
300 1 8.495221224235614 10.76805880413361 0.0 
301 1 9.061569305851322 9.809436521275707 0.0 
302 1 9.62791738746703 10.76805880413361 0.0 
303 1 10.194265469082737 9.809436521275707 0.0 
304 1 10.760613550698444 10.76805880413361 0.0 
305 1 11.326961632314152 9.809436521275707 0.0 
306 1 11.89330971392986 10.76805880413361 0.0 
307 1 12.459657795545569 9.809436521275707 0.0 
308 1 13.026005877161273 10.76805880413361 0.0 
309 1 13.592353958776982 9.809436521275707 0.0 
310 1 14.15870204039269 10.76805880413361 0.0 
311 1 14.725050122008398 9.809436521275707 0.0 
312 1 15.291398203624107 10.76805880413361 0.0 
313 1 15.857746285239811 9.809436521275707 0.0 
314 1 16.42409436685552 10.76805880413361 0.0 
315 1 16.990442448471228 9.809436521275707 0.0 
316 1 17.556790530086936 10.76805880413361 0.0 
317 1 18.123138611702643 9.809436521275707 0.0 
318 1 18.68948669331835 10.76805880413361 0.0 
319 1 19.25583477493406 9.809436521275707 0.0 
320 1 19.822182856549766 10.76805880413361 0.0 
321 1 20.388530938165474 9.809436521275707 0.0 
322 1 20.95487901978118 10.76805880413361 0.0 
323 1 21.52122710139689 9.809436521275707 0.0 
324 1 22.087575183012596 10.76805880413361 0.0 
325 1 0.0 11.72662354548711 0.0 
326 1 0.5663480816157076 12.685169106339142 0.0 
327 1 1.1326961632314152 11.72662354548711 0.0 
328 1 1.6990442448471228 12.685169106339142 0.0 
329 1 2.2653923264628304 11.72662354548711 0.0 
330 1 2.831740408078538 12.685169106339142 0.0 
331 1 3.3980884896942456 11.72662354548711 0.0 
332 1 3.9644365713099528 12.685169106339142 0.0 
333 1 4.530784652925661 11.72662354548711 0.0 
334 1 5.097132734541368 12.685169106339142 0.0 
335 1 5.663480816157076 11.72662354548711 0.0 
336 1 6.2298288977727845 12.685169106339142 0.0 
337 1 6.796176979388491 11.72662354548711 0.0 
338 1 7.362525061004199 12.685169106339142 0.0 
339 1 7.9288731426199055 11.72662354548711 0.0 
340 1 8.495221224235614 12.685169106339142 0.0 
341 1 9.061569305851322 11.72662354548711 0.0 
342 1 9.62791738746703 12.685169106339142 0.0 
343 1 10.194265469082737 11.72662354548711 0.0 
344 1 10.760613550698444 12.685169106339142 0.0 
345 1 11.326961632314152 11.72662354548711 0.0 
346 1 11.89330971392986 12.685169106339142 0.0 
347 1 12.459657795545569 11.72662354548711 0.0 
348 1 13.026005877161273 12.685169106339142 0.0 
349 1 13.592353958776982 11.72662354548711 0.0 
350 1 14.15870204039269 12.685169106339142 0.0 
351 1 14.725050122008398 11.72662354548711 0.0 
352 1 15.291398203624107 12.685169106339142 0.0 
353 1 15.857746285239811 11.72662354548711 0.0 
354 1 16.42409436685552 12.685169106339142 0.0 
355 1 16.990442448471228 11.72662354548711 0.0 
356 1 17.556790530086936 12.685169106339142 0.0 
357 1 18.123138611702643 11.72662354548711 0.0 
358 1 18.68948669331835 12.685169106339142 0.0 
359 1 19.25583477493406 11.72662354548711 0.0 
360 1 19.822182856549766 12.685169106339142 0.0 
361 1 20.388530938165474 11.72662354548711 0.0 
362 1 20.95487901978118 12.685169106339142 0.0 
363 1 21.52122710139689 11.72662354548711 0.0 
364 1 22.087575183012596 12.685169106339142 0.0 
365 1 4.298876440465661e-17 13.643829750199979 0.0 
366 1 0.5663480816157076 14.602413672054947 0.0 
367 1 1.1326961632314152 13.643829750199979 0.0 
368 1 1.6990442448471228 14.602413672054947 0.0 
369 1 2.2653923264628304 13.643829750199979 0.0 
370 1 2.831740408078538 14.602413672054947 0.0 
371 1 3.3980884896942456 13.643829750199979 0.0 
372 1 3.9644365713099528 14.602413672054947 0.0 
373 1 4.530784652925661 13.643829750199979 0.0 
374 1 5.097132734541368 14.602413672054947 0.0 
375 1 5.663480816157076 13.643829750199979 0.0 
376 1 6.2298288977727845 14.602413672054947 0.0 
377 1 6.796176979388491 13.643829750199979 0.0 
378 1 7.362525061004199 14.602413672054947 0.0 
379 1 7.9288731426199055 13.643829750199979 0.0 
380 1 8.495221224235614 14.602413672054947 0.0 
381 1 9.061569305851322 13.643829750199979 0.0 
382 1 9.62791738746703 14.602413672054947 0.0 
383 1 10.194265469082737 13.643829750199979 0.0 
384 1 10.760613550698444 14.602413672054947 0.0 
385 1 11.326961632314152 13.643829750199979 0.0 
386 1 11.89330971392986 14.602413672054947 0.0 
387 1 12.459657795545569 13.643829750199979 0.0 
388 1 13.026005877161273 14.602413672054947 0.0 
389 1 13.592353958776982 13.643829750199979 0.0 
390 1 14.15870204039269 14.602413672054947 0.0 
391 1 14.725050122008398 13.643829750199979 0.0 
392 1 15.291398203624107 14.602413672054947 0.0 
393 1 15.857746285239811 13.643829750199979 0.0 
394 1 16.42409436685552 14.602413672054947 0.0 
395 1 16.990442448471228 13.643829750199979 0.0 
396 1 17.556790530086936 14.602413672054947 0.0 
397 1 18.123138611702643 13.643829750199979 0.0 
398 1 18.68948669331835 14.602413672054947 0.0 
399 1 19.25583477493406 13.643829750199979 0.0 
400 1 19.822182856549766 14.602413672054947 0.0 
401 1 20.388530938165474 13.643829750199979 0.0 
402 1 20.95487901978118 14.602413672054947 0.0 
403 1 21.52122710139689 13.643829750199979 0.0 
404 1 22.087575183012596 14.602413672054947 0.0 
405 1 9.706277308039379e-17 15.56086333039964 0.0 
406 1 0.5663480816157076 16.519351349747264 0.0 
407 1 1.1326961632314152 15.56086333039964 0.0 
408 1 1.6990442448471228 16.519351349747264 0.0 
409 1 2.2653923264628304 15.56086333039964 0.0 
410 1 2.831740408078538 16.519351349747264 0.0 
411 1 3.3980884896942456 15.56086333039964 0.0 
412 1 3.9644365713099528 16.519351349747264 0.0 
413 1 4.530784652925661 15.56086333039964 0.0 
414 1 5.097132734541368 16.519351349747264 0.0 
415 1 5.663480816157076 15.56086333039964 0.0 
416 1 6.2298288977727845 16.519351349747264 0.0 
417 1 6.796176979388491 15.56086333039964 0.0 
418 1 7.362525061004199 16.519351349747264 0.0 
419 1 7.9288731426199055 15.56086333039964 0.0 
420 1 8.495221224235614 16.519351349747264 0.0 
421 1 9.061569305851322 15.56086333039964 0.0 
422 1 9.62791738746703 16.519351349747264 0.0 
423 1 10.194265469082737 15.56086333039964 0.0 
424 1 10.760613550698444 16.519351349747264 0.0 
425 1 11.326961632314152 15.56086333039964 0.0 
426 1 11.89330971392986 16.519351349747264 0.0 
427 1 12.459657795545569 15.56086333039964 0.0 
428 1 13.026005877161273 16.519351349747264 0.0 
429 1 13.592353958776982 15.56086333039964 0.0 
430 1 14.15870204039269 16.519351349747264 0.0 
431 1 14.725050122008398 15.56086333039964 0.0 
432 1 15.291398203624107 16.519351349747264 0.0 
433 1 15.857746285239811 15.56086333039964 0.0 
434 1 16.42409436685552 16.519351349747264 0.0 
435 1 16.990442448471228 15.56086333039964 0.0 
436 1 17.556790530086936 16.519351349747264 0.0 
437 1 18.123138611702643 15.56086333039964 0.0 
438 1 18.68948669331835 16.519351349747264 0.0 
439 1 19.25583477493406 15.56086333039964 0.0 
440 1 19.822182856549766 16.519351349747264 0.0 
441 1 20.388530938165474 15.56086333039964 0.0 
442 1 20.95487901978118 16.519351349747264 0.0 
443 1 21.52122710139689 15.56086333039964 0.0 
444 1 22.087575183012596 16.519351349747264 0.0 
445 1 0.0 17.477379037059666 0.0 
446 1 0.5663480816157076 18.43557934888528 0.0 
447 1 1.1326961632314152 17.477379037059666 0.0 
448 1 1.6990442448471228 18.43557934888528 0.0 
449 1 2.2653923264628304 17.477379037059666 0.0 
450 1 2.831740408078538 18.43557934888528 0.0 
451 1 3.3980884896942456 17.477379037059666 0.0 
452 1 3.9644365713099528 18.43557934888528 0.0 
453 1 4.530784652925661 17.477379037059666 0.0 
454 1 5.097132734541368 18.43557934888528 0.0 
455 1 5.663480816157076 17.477379037059666 0.0 
456 1 6.2298288977727845 18.43557934888528 0.0 
457 1 6.796176979388491 17.477379037059666 0.0 
458 1 7.362525061004199 18.43557934888528 0.0 
459 1 7.9288731426199055 17.477379037059666 0.0 
460 1 8.495221224235614 18.43557934888528 0.0 
461 1 9.061569305851322 17.477379037059666 0.0 
462 1 9.62791738746703 18.43557934888528 0.0 
463 1 18.123138611702643 17.477379037059666 0.0 
464 1 18.68948669331835 18.43557934888528 0.0 
465 1 19.25583477493406 17.477379037059666 0.0 
466 1 19.822182856549766 18.43557934888528 0.0 
467 1 20.388530938165474 17.477379037059666 0.0 
468 1 20.95487901978118 18.43557934888528 0.0 
469 1 21.52122710139689 17.477379037059666 0.0 
470 1 22.087575183012596 18.43557934888528 0.0 
471 1 5.179842208380526e-17 19.397730844013253 0.0 
472 1 1.1326961632314152 19.397730844013253 0.0 
473 1 2.2653923264628304 19.397730844013253 0.0 
474 1 3.3980884896942456 19.397730844013253 0.0 
475 1 4.530784652925661 19.397730844013253 0.0 
476 1 5.663480816157076 19.397730844013253 0.0 
477 1 6.796176979388491 19.397730844013253 0.0 
478 1 7.9288731426199055 19.397730844013253 0.0 
479 1 9.061569305851322 19.397730844013253 0.0 
480 1 18.123138611702643 19.397730844013253 0.0 
481 1 19.25583477493406 19.397730844013253 0.0 
482 1 20.388530938165474 19.397730844013253 0.0 
483 1 21.52122710139689 19.397730844013253 0.0 
ITEM: TIMESTEP
10
ITEM: NUMBER OF ATOMS
483
ITEM: BOX BOUNDS
0.0 22.653923264628304
0.2191857873884455 19.399687255162966
-0.2831740408078538 0.2831740408078538
ITEM: ATOMS id type x y z 
1 3 10.194265469082737 17.477379037059666 0.0 
2 3 10.760613550698444 18.43557934888528 0.0 
3 3 11.326961632314152 17.477379037059666 0.0 
4 3 11.89330971392986 18.43557934888528 0.0 
5 3 12.459657795545569 17.477379037059666 0.0 
6 3 13.026005877161273 18.43557934888528 0.0 
7 3 13.592353958776982 17.477379037059666 0.0 
8 3 14.15870204039269 18.43557934888528 0.0 
9 3 14.725050122008398 17.477379037059666 0.0 
10 3 15.291398203624107 18.43557934888528 0.0 
11 3 15.857746285239811 17.477379037059666 0.0 
12 3 16.42409436685552 18.43557934888528 0.0 
13 3 16.990442448471228 17.477379037059666 0.0 
14 3 17.556790530086936 18.43557934888528 0.0 
15 3 10.194265469082737 19.39786510752353 0.0 
16 3 11.326961632314152 19.39786510752353 0.0 
17 3 12.459657795545569 19.39786510752353 0.0 
18 3 13.592353958776982 19.39786510752353 0.0 
19 3 14.725050122008398 19.39786510752353 0.0 
20 3 15.857746285239811 19.39786510752353 0.0 
21 3 16.990442448471228 19.39786510752353 0.0 
22 3 10.19417485338968 17.47725858217636 0.0 
23 3 10.760024548693565 18.435306124669292 0.0 
24 3 11.327097555853738 17.477573742353176 0.0 
25 3 11.895189989560823 18.4387925841253 0.0 
26 3 12.459725757315361 17.477554044842126 0.0 
27 3 13.02754634394327 18.442180556026052 0.0 
28 3 13.588661369284846 17.47229480939154 0.0 
29 3 14.189443414262792 18.388327560812932 0.0 
30 3 14.7342702687771 17.462367263821893 0.0 
31 3 15.298511535529197 18.431307529925963 0.0 
32 3 15.858743057863457 17.476825236933244 0.0 
33 3 16.424706022783663 18.43522733462509 0.0 
34 3 16.990419794547964 17.477376767242667 0.0 
35 3 17.556790530086936 18.435581889824007 0.0 
36 3 10.193903006310503 19.39788409470393 0.0 
37 3 11.327324095086386 19.399282617988543 0.0 
38 3 12.842146635945552 19.954319084380373 0.0 
39 3 13.695701156710218 19.329376151268953 0.0 
40 3 14.772442129478 19.39900685283383 0.0 
41 3 15.868076474248483 19.397864397192876 0.0 
42 3 16.9910994122459 19.397864397192876 0.0 
43 3 10.19417485338968 17.477231520278185 0.0 
44 3 10.759231661379301 18.434969883692876 0.0 
45 3 11.326100783230096 17.477050989023823 0.0 
46 3 11.889888971516902 18.43643419275603 0.0 
47 3 12.452838964642915 17.467061592949165 0.0 
48 3 12.995694927833203 18.39102055277004 0.0 
49 3 13.591651687155778 17.469328263142813 0.0 
50 3 14.212369184606594 18.358504867956754 0.0 
51 3 14.738212051425146 17.458496387881137 0.0 
52 3 15.298624805145522 18.43384657811018 0.0 
53 3 15.860464756031567 17.47687045776946 0.0 
54 3 16.425227063018752 18.435551595512482 0.0 
55 3 16.9903971406247 17.477391992504284 0.0 
56 3 17.556790530086936 18.435591713569007 0.0 
57 3 10.193540543538267 19.397863417370992 0.0 
58 3 11.323812736980368 19.39834483404929 0.0 
59 3 13.366086573209875 20.348019468102507 0.0 
60 3 13.610771598391127 19.311569477786314 0.0 
61 3 14.725843009322661 19.39521562564036 0.0 
62 3 15.858018132318987 19.398565483360173 0.0 
63 3 16.990419794547964 19.397863417370992 0.0 
64 3 10.194152199466414 17.477232386939004 0.0 
65 3 10.759684739844595 18.43492424457562 0.0 
66 3 11.326916324467623 17.477293235268483 0.0 
67 3 11.894079947320858 18.437216198319245 0.0 
68 3 12.459748411238627 17.476745600303193 0.0 
69 3 13.026096492854332 18.438777972109154 0.0 
70 3 13.592467228393305 17.4775163458099 0.0 
71 3 14.159517581630217 18.437135067213276 0.0 
72 3 14.725095429854926 17.477475780256913 0.0 
73 3 15.290469392770255 18.437195915542755 0.0 
74 3 15.857655669546753 17.4775163458099 0.0 
75 3 16.424003751162463 18.435674707305832 0.0 
76 3 16.990442448471228 17.477374366374452 0.0 
77 3 17.556790530086936 18.435593576199864 0.0 
78 3 10.193472581768475 19.397869341323734 0.0 
79 3 11.323586197747723 19.397869341323734 0.0 
80 3 14.005561519123804 20.473931482569366 0.0 
81 3 13.59797213174661 19.406306976344524 0.0 
82 3 14.719771757887738 19.4087409095236 0.0 
83 3 15.85661358907658 19.398295279630073 0.0 
84 3 16.99035183277817 19.397869341323734 0.0 
85 2 1.8292204841026564e-16 0.22114806777160764 0.0 
86 2 0.5663480816157076 1.1832936936661318 0.0 
87 2 1.1326961632314152 0.22114806777160764 0.0 
88 2 1.6990442448471228 1.1832936936661318 0.0 
89 2 2.2653923264628304 0.22114806777160764 0.0 
90 2 2.831740408078538 1.1832936936661318 0.0 
91 2 3.3980884896942456 0.22114806777160764 0.0 
92 2 3.9644365713099528 1.1832936936661318 0.0 
93 2 4.530784652925661 0.22114806777160764 0.0 
94 2 5.097132734541368 1.1832936936661318 0.0 
95 2 5.663480816157076 0.22114806777160764 0.0 
96 2 6.2298288977727845 1.1832936936661318 0.0 
97 2 6.796176979388491 0.22114806777160764 0.0 
98 2 7.362525061004199 1.1832936936661318 0.0 
99 2 7.9288731426199055 0.22114806777160764 0.0 
100 2 8.495221224235614 1.1832936936661318 0.0 
101 2 9.061569305851322 0.22114806777160764 0.0 
102 2 9.62791738746703 1.1832936936661318 0.0 
103 2 10.194265469082737 0.22114806777160764 0.0 
104 2 10.760613550698444 1.1832936936661318 0.0 
105 2 11.326961632314152 0.22114806777160764 0.0 
106 2 11.89330971392986 1.1832936936661318 0.0 
107 2 12.459657795545569 0.22114806777160764 0.0 
108 2 13.026005877161273 1.1832936936661318 0.0 
109 2 13.592353958776982 0.22114806777160764 0.0 
110 2 14.15870204039269 1.1832936936661318 0.0 
111 2 14.725050122008398 0.22114806777160764 0.0 
112 2 15.291398203624107 1.1832936936661318 0.0 
113 2 15.857746285239811 0.22114806777160764 0.0 
114 2 16.42409436685552 1.1832936936661318 0.0 
115 2 16.990442448471228 0.22114806777160764 0.0 
116 2 17.556790530086936 1.1832936936661318 0.0 
117 2 18.123138611702643 0.22114806777160764 0.0 
118 2 18.68948669331835 1.1832936936661318 0.0 
119 2 19.25583477493406 0.22114806777160764 0.0 
120 2 19.822182856549766 1.1832936936661318 0.0 
121 2 20.388530938165474 0.22114806777160764 0.0 
122 2 20.95487901978118 1.1832936936661318 0.0 
123 2 21.52122710139689 0.22114806777160764 0.0 
124 2 22.087575183012596 1.1832936936661318 0.0 
125 2 2.423380787310348e-16 2.1414940054917437 0.0 
126 1 0.5663480816157076 3.0995216928041454 0.0 
127 2 1.1326961632314152 2.1414940054917437 0.0 
128 1 1.6990442448471228 3.0995216928041454 0.0 
129 2 2.2653923264628304 2.1414940054917437 0.0 
130 1 2.831740408078538 3.0995216928041454 0.0 
131 2 3.3980884896942456 2.1414940054917437 0.0 
132 1 3.9644365713099528 3.0995216928041454 0.0 
133 2 4.530784652925661 2.1414940054917437 0.0 
134 1 5.097132734541368 3.0995216928041454 0.0 
135 2 5.663480816157076 2.1414940054917437 0.0 