ITEM: TIMESTEP
0
ITEM: NUMBER OF ATOMS
21
ITEM: BOX BOUNDS pp ss pp
0.0000000000000000e+00 2.2653923264628304e+01
2.1918578738844549e-01 2.0134537271508801e+01
-2.8317404080785380e-01 2.8317404080785380e-01
ITEM: ATOMS id type xs ys zs
379 3 0.45 0.866577 0.5
380 3 0.475 0.914691 0.5
381 3 0.5 0.866577 0.5
382 3 0.525 0.914691 0.5
383 3 0.55 0.866577 0.5
384 3 0.575 0.914691 0.5
385 3 0.6 0.866577 0.5
386 3 0.625 0.914691 0.5
387 3 0.65 0.866577 0.5
388 3 0.675 0.914691 0.5
389 3 0.7 0.866577 0.5
390 3 0.725 0.914691 0.5
391 3 0.75 0.866577 0.5
392 3 0.775 0.914691 0.5
410 3 0.45 0.963003 0.5
411 3 0.5 0.963003 0.5
412 3 0.59533 0.999901 0.5
413 3 0.6 0.963003 0.5
414 3 0.65 0.963003 0.5
415 3 0.7 0.963003 0.5
416 3 0.75 0.963003 0.5
ITEM: TIMESTEP
10
ITEM: NUMBER OF ATOMS
21
ITEM: BOX BOUNDS pp ss pp
0.0000000000000000e+00 2.2653923264628304e+01
2.1918578738844549e-01 2.0278214049749494e+01
-2.8317404080785380e-01 2.8317404080785380e-01
ITEM: ATOMS id type xs ys zs
379 3 0.449996 0.860363 0.5
380 3 0.474939 0.908109 0.5
381 3 0.499962 0.860354 0.5
382 3 0.524849 0.908182 0.5
383 3 0.549699 0.859856 0.5
384 3 0.573662 0.905918 0.5
385 3 0.599969 0.859969 0.5
386 3 0.627369 0.904297 0.5
387 3 0.650581 0.859429 0.5
388 3 0.675319 0.908053 0.5
389 3 0.70012 0.860345 0.5
390 3 0.72505 0.908138 0.5
391 3 0.749998 0.860371 0.5
392 3 0.775 0.90814 0.5
410 3 0.449968 0.956112 0.5
411 3 0.499861 0.956136 0.5
412 3 0.590012 1.00348 0.5
413 3 0.600813 0.95181 0.5
414 3 0.650035 0.95598 0.5
415 3 0.700012 0.956147 0.5
416 3 0.749999 0.956112 0.5
ITEM: TIMESTEP
20
ITEM: NUMBER OF ATOMS
21
ITEM: BOX BOUNDS pp ss pp
0.0000000000000000e+00 2.2653923264628304e+01
2.1918578738844549e-01 2.0278214049749494e+01
-2.8317404080785380e-01 2.8317404080785380e-01
ITEM: ATOMS id type xs ys zs
379 3 0.449887 0.860288 0.5
380 3 0.474806 0.908021 0.5
381 3 0.499845 0.860231 0.5
382 3 0.524956 0.908074 0.5
383 3 0.549735 0.859745 0.5
384 3 0.57493 0.906882 0.5
385 3 0.600125 0.8595 0.5
386 3 0.625786 0.906433 0.5
387 3 0.65053 0.859477 0.5
388 3 0.675429 0.907586 0.5
389 3 0.700373 0.860012 0.5
390 3 0.72522 0.90803 0.5
391 3 0.750175 0.860282 0.5
392 3 0.775094 0.908147 0.5
410 3 0.449762 0.956099 0.5
411 3 0.499558 0.956044 0.5
412 3 0.588748 1.00641 0.5
413 3 0.600893 0.953421 0.5
414 3 0.650248 0.955316 0.5
415 3 0.700112 0.95594 0.5
416 3 0.750073 0.956139 0.5
ITEM: TIMESTEP
30
ITEM: NUMBER OF ATOMS
21
ITEM: BOX BOUNDS pp ss pp
0.0000000000000000e+00 2.2653923264628304e+01
2.1918578738844549e-01 2.0417114208232690e+01
-2.8317404080785380e-01 2.8317404080785380e-01
ITEM: ATOMS id type xs ys zs
379 3 0.449886 0.85431 0.5
380 3 0.474801 0.901693 0.5
381 3 0.49994 0.854317 0.5
382 3 0.525032 0.90189 0.5
383 3 0.549916 0.854016 0.5
384 3 0.575093 0.901218 0.5
385 3 0.600114 0.853771 0.5
386 3 0.62552 0.900799 0.5
387 3 0.65036 0.853691 0.5
388 3 0.675332 0.901332 0.5
389 3 0.700299 0.854027 0.5
390 3 0.725216 0.90164 0.5
391 3 0.750206 0.854258 0.5
392 3 0.77513 0.90182 0.5
410 3 0.449691 0.949423 0.5
411 3 0.499473 0.949391 0.5
412 3 0.588274 1.00093 0.5
413 3 0.600837 0.947923 0.5
414 3 0.650295 0.948879 0.5
415 3 0.700148 0.949181 0.5
416 3 0.750085 0.949429 0.5
ITEM: TIMESTEP
40
ITEM: NUMBER OF ATOMS
21
ITEM: BOX BOUNDS pp ss pp
0.0000000000000000e+00 2.2653923264628304e+01
2.1918578738844549e-01 2.0417114208232690e+01
-2.8317404080785380e-01 2.8317404080785380e-01
ITEM: ATOMS id type xs ys zs
379 3 0.449896 0.854281 0.5
380 3 0.474785 0.901669 0.5
381 3 0.499979 0.854354 0.5
382 3 0.525024 0.901969 0.5
383 3 0.549978 0.854204 0.5
384 3 0.5751 0.901559 0.5
385 3 0.600095 0.854024 0.5
386 3 0.625447 0.901098 0.5
387 3 0.650263 0.853894 0.5
388 3 0.675279 0.901409 0.5
389 3 0.700235 0.854069 0.5
390 3 0.725198 0.901582 0.5
391 3 0.750186 0.854217 0.5
392 3 0.775133 0.901737 0.5
410 3 0.449638 0.949371 0.5
411 3 0.499402 0.949412 0.5
412 3 0.588181 1.00159 0.5
413 3 0.600824 0.948469 0.5
414 3 0.650338 0.94909 0.5
415 3 0.70019 0.94918 0.5
416 3 0.750106 0.949346 0.5
ITEM: TIMESTEP
50
ITEM: NUMBER OF ATOMS
21
ITEM: BOX BOUNDS pp ss pp
0.0000000000000000e+00 2.2653923264628304e+01
2.1918578738844549e-01 2.0417114208232690e+01
-2.8317404080785380e-01 2.8317404080785380e-01
ITEM: ATOMS id type xs ys zs
379 3 0.449897 0.854271 0.5
380 3 0.474762 0.901684 0.5
381 3 0.499989 0.854391 0.5
382 3 0.524999 0.90205 0.5
383 3 0.549994 0.854311 0.5
384 3 0.575094 0.901765 0.5
385 3 0.600079 0.854155 0.5
386 3 0.625417 0.901303 0.5
387 3 0.650226 0.853984 0.5
388 3 0.675264 0.90151 0.5
389 3 0.700199 0.854097 0.5
390 3 0.725192 0.901597 0.5
391 3 0.750167 0.854195 0.5
392 3 0.775136 0.901703 0.5
410 3 0.449587 0.949358 0.5
411 3 0.499339 0.949454 0.5
412 3 0.588245 1.00192 0.5
413 3 0.600832 0.948716 0.5
414 3 0.650366 0.949229 0.5
415 3 0.700224 0.94922 0.5
416 3 0.750132 0.94932 0.5
ITEM: TIMESTEP
60
ITEM: NUMBER OF ATOMS
21
ITEM: BOX BOUNDS pp ss pp
0.0000000000000000e+00 2.2653923264628304e+01
2.1918578738844549e-01 2.0417114208232690e+01
-2.8317404080785380e-01 2.8317404080785380e-01
ITEM: ATOMS id type xs ys zs
379 3 0.449893 0.854275 0.5
380 3 0.474743 0.901702 0.5
381 3 0.499988 0.854423 0.5
382 3 0.524981 0.902102 0.5
383 3 0.549996 0.854382 0.5
384 3 0.575087 0.901864 0.5
385 3 0.600072 0.854241 0.5
386 3 0.62541 0.901393 0.5
387 3 0.65021 0.854055 0.5
388 3 0.675261 0.901566 0.5
389 3 0.700185 0.854132 0.5
390 3 0.725192 0.901614 0.5
391 3 0.750158 0.854197 0.5
392 3 0.775139 0.901693 0.5
410 3 0.449549 0.949362 0.5
411 3 0.499297 0.949489 0.5
412 3 0.588351 1.00209 0.5
413 3 0.600838 0.948837 0.5
414 3 0.650383 0.949309 0.5
415 3 0.700246 0.949257 0.5
416 3 0.750151 0.94932 0.5
ITEM: TIMESTEP
70
ITEM: NUMBER OF ATOMS
21
ITEM: BOX BOUNDS pp ss pp
0.0000000000000000e+00 2.2653923264628304e+01
2.1918578738844549e-01 2.0417114208232690e+01
-2.8317404080785380e-01 2.8317404080785380e-01
ITEM: ATOMS id type xs ys zs
379 3 0.449887 0.854283 0.5
380 3 0.474727 0.90172 0.5
381 3 0.499985 0.854452 0.5
382 3 0.524967 0.902143 0.5
383 3 0.549994 0.854431 0.5
384 3 0.575081 0.901931 0.5
385 3 0.600066 0.854297 0.5
386 3 0.625407 0.901458 0.5
387 3 0.650203 0.854101 0.5
388 3 0.675261 0.901609 0.5
389 3 0.700177 0.85416 0.5
390 3 0.725195 0.901633 0.5
391 3 0.750152 0.854205 0.5
392 3 0.775143 0.90169 0.5
410 3 0.449519 0.94937 0.5
411 3 0.499263 0.949518 0.5
412 3 0.588474 1.0022 0.5
413 3 0.600843 0.948909 0.5
414 3 0.650394 0.949364 0.5
415 3 0.700261 0.949288 0.5
416 3 0.750167 0.949327 0.5
ITEM: TIMESTEP
80
ITEM: NUMBER OF ATOMS
21
ITEM: BOX BOUNDS pp ss pp
0.0000000000000000e+00 2.2653923264628304e+01
2.1918578738844549e-01 2.0417114208232690e+01
-2.8317404080785380e-01 2.8317404080785380e-01
ITEM: ATOMS id type xs ys zs
379 3 0.449881 0.854292 0.5
380 3 0.474711 0.901737 0.5
381 3 0.49998 0.854476 0.5
382 3 0.524954 0.902178 0.5
383 3 0.549991 0.854471 0.5
384 3 0.575075 0.901981 0.5
385 3 0.600062 0.854343 0.5
386 3 0.625405 0.901504 0.5
387 3 0.650197 0.854141 0.5
388 3 0.675262 0.901644 0.5
389 3 0.700173 0.854185 0.5
390 3 0.725198 0.901651 0.5
391 3 0.750149 0.854214 0.5
392 3 0.775147 0.901693 0.5
410 3 0.449492 0.949379 0.5
411 3 0.499235 0.949543 0.5
412 3 0.588615 1.0023 0.5
413 3 0.600846 0.948963 0.5
414 3 0.650401 0.949408 0.5
415 3 0.700273 0.949315 0.5
416 3 0.75018 0.949337 0.5
ITEM: TIMESTEP
87
ITEM: NUMBER OF ATOMS
21
ITEM: BOX BOUNDS pp ss pp
0.0000000000000000e+00 2.2653923264628304e+01
2.1918578738844549e-01 2.0417114208232690e+01
-2.8317404080785380e-01 2.8317404080785380e-01
ITEM: ATOMS id type xs ys zs
379 3 0.449878 0.854297 0.5
380 3 0.474704 0.901745 0.5
381 3 0.499977 0.854489 0.5
382 3 0.524948 0.902193 0.5
383 3 0.549989 0.85449 0.5
384 3 0.575073 0.902003 0.5
385 3 0.60006 0.854364 0.5
386 3 0.625405 0.901525 0.5
387 3 0.650195 0.854159 0.5
388 3 0.675262 0.90166 0.5
389 3 0.700171 0.854198 0.5
390 3 0.725199 0.901659 0.5
391 3 0.750148 0.854221 0.5
392 3 0.775149 0.901694 0.5
410 3 0.44948 0.949384 0.5
411 3 0.499221 0.949555 0.5
412 3 0.588696 1.00235 0.5
413 3 0.600847 0.948985 0.5
414 3 0.650404 0.949428 0.5
415 3 0.700278 0.949327 0.5
416 3 0.750186 0.949343 0.5
ITEM: TIMESTEP
90
ITEM: NUMBER OF ATOMS
21
ITEM: BOX BOUNDS pp ss pp
0.0000000000000000e+00 2.2653923264628304e+01
2.1918578738844549e-01 2.0466457584878601e+01
-2.8317404080785380e-01 2.8317404080785380e-01
ITEM: ATOMS id type xs ys zs
379 3 0.449877 0.852217 0.5
380 3 0.474703 0.89955 0.5
381 3 0.499977 0.852409 0.5
382 3 0.524948 0.899999 0.5
383 3 0.549989 0.852412 0.5
384 3 0.575073 0.89981 0.5
385 3 0.60006 0.852286 0.5
386 3 0.625405 0.899332 0.5
387 3 0.650196 0.85208 0.5
388 3 0.675263 0.899466 0.5
389 3 0.700171 0.852118 0.5
390 3 0.7252 0.899464 0.5
391 3 0.750148 0.85214 0.5
392 3 0.775149 0.899497 0.5
410 3 0.449478 0.947072 0.5
411 3 0.49922 0.947245 0.5
412 3 0.588658 0.999889 0.5
413 3 0.600849 0.946676 0.5
414 3 0.650406 0.947118 0.5
415 3 0.70028 0.947016 0.5
416 3 0.750187 0.94703 0.5
ITEM: TIMESTEP
100
ITEM: NUMBER OF ATOMS
21
ITEM: BOX BOUNDS pp ss pp
0.0000000000000000e+00 2.2653923264628304e+01
2.1918578738844549e-01 2.0466457584878601e+01
-2.8317404080785380e-01 2.8317404080785380e-01
ITEM: ATOMS id type xs ys zs
379 3 0.449872 0.852232 0.5
380 3 0.474692 0.899572 0.5
381 3 0.499974 0.852437 0.5
382 3 0.524941 0.900034 0.5
383 3 0.549987 0.85245 0.5
384 3 0.575073 0.899852 0.5
385 3 0.600059 0.852325 0.5
386 3 0.625415 0.899361 0.5
387 3 0.650197 0.852111 0.5
388 3 0.675273 0.899491 0.5
389 3 0.700173 0.852139 0.5
390 3 0.72521 0.899481 0.5
391 3 0.75015 0.852149 0.5
392 3 0.775157 0.899503 0.5
410 3 0.449457 0.947088 0.5
411 3 0.499201 0.947274 0.5
412 3 0.588234 0.999791 0.5
413 3 0.600871 0.946711 0.5
414 3 0.650428 0.947145 0.5
415 3 0.700299 0.947039 0.5
416 3 0.750204 0.947041 0.5
ITEM: TIMESTEP
110
ITEM: NUMBER OF ATOMS
21
ITEM: BOX BOUNDS pp ss pp
0.0000000000000000e+00 2.2653923264628304e+01
2.1918578738844549e-01 2.0466457584878601e+01
-2.8317404080785380e-01 2.8317404080785380e-01
ITEM: ATOMS id type xs ys zs
379 3 0.44987 0.85224 0.5
380 3 0.474687 0.899583 0.5
381 3 0.499972 0.85245 0.5
382 3 0.524938 0.90005 0.5
383 3 0.549987 0.852467 0.5
384 3 0.575075 0.899875 0.5
385 3 0.600058 0.852341 0.5
386 3 0.625417 0.899379 0.5
387 3 0.650198 0.852123 0.5
388 3 0.675278 0.899501 0.5
389 3 0.700175 0.852148 0.5
390 3 0.725215 0.899487 0.5
391 3 0.750151 0.852155 0.5
392 3 0.775162 0.899506 0.5
410 3 0.449447 0.947095 0.5
411 3 0.499191 0.947287 0.5
412 3 0.588008 0.999747 0.5
413 3 0.600881 0.946731 0.5
414 3 0.650438 0.947155 0.5
415 3 0.700308 0.947048 0.5
416 3 0.750212 0.947047 0.5
ITEM: TIMESTEP
120
ITEM: NUMBER OF ATOMS
21
ITEM: BOX BOUNDS pp ss pp
0.0000000000000000e+00 2.2653923264628304e+01
2.1918578738844549e-01 2.0466457584878601e+01
-2.8317404080785380e-01 2.8317404080785380e-01
ITEM: ATOMS id type xs ys zs
379 3 0.449865 0.852251 0.5
380 3 0.474679 0.899597 0.5
381 3 0.49997 0.852469 0.5
382 3 0.524933 0.900073 0.5
383 3 0.549986 0.852494 0.5
384 3 0.575076 0.899905 0.5
385 3 0.600058 0.852368 0.5
386 3 0.625421 0.899399 0.5
387 3 0.650198 0.852145 0.5
388 3 0.675285 0.899513 0.5
389 3 0.700178 0.852161 0.5
390 3 0.725222 0.899496 0.5
391 3 0.750154 0.852162 0.5
392 3 0.775168 0.899509 0.5
410 3 0.449432 0.947105 0.5
411 3 0.499177 0.947305 0.5
412 3 0.587676 0.999678 0.5
413 3 0.600895 0.946764 0.5
414 3 0.650453 0.947169 0.5
415 3 0.70032 0.94706 0.5
416 3 0.750224 0.947054 0.5
ITEM: TIMESTEP
124
ITEM: NUMBER OF ATOMS
21
ITEM: BOX BOUNDS pp ss pp
0.0000000000000000e+00 2.2653923264628304e+01
2.1918578738844549e-01 2.0466457584878601e+01
-2.8317404080785380e-01 2.8317404080785380e-01
ITEM: ATOMS id type xs ys zs
379 3 0.449864 0.852252 0.5
380 3 0.474678 0.8996 0.5
381 3 0.499969 0.852472 0.5
382 3 0.524932 0.900077 0.5
383 3 0.549986 0.852497 0.5
384 3 0.575076 0.899912 0.5
385 3 0.600057 0.85237 0.5
386 3 0.625421 0.899406 0.5
387 3 0.650199 0.852144 0.5
388 3 0.675287 0.899518 0.5
389 3 0.700178 0.852161 0.5
390 3 0.725223 0.899499 0.5
391 3 0.750155 0.852162 0.5
392 3 0.775169 0.89951 0.5
410 3 0.44943 0.947107 0.5
411 3 0.499175 0.947308 0.5
412 3 0.58761 0.999664 0.5
413 3 0.600898 0.946768 0.5
414 3 0.650456 0.947171 0.5
415 3 0.700323 0.947062 0.5
416 3 0.750226 0.947055 0.5
