ITEM: TIMESTEP
0
ITEM: NUMBER OF ATOMS
399
ITEM: BOX BOUNDS pp ss pp
0.0000000000000000e+00 2.2653923264628304e+01
2.1918578738844549e-01 1.9767112263335882e+01
-2.8317404080785380e-01 2.8317404080785380e-01
ITEM: ATOMS id type xs ys zs
1 2 8.07463e-18 0.000100383 0.5
2 2 0.025 0.0493202 0.5
3 2 0.05 0.000100383 0.5
4 2 0.075 0.0493202 0.5
5 2 0.1 0.000100383 0.5
6 2 0.125 0.0493202 0.5
7 2 0.15 0.000100383 0.5
8 2 0.175 0.0493202 0.5
9 2 0.2 0.000100383 0.5
10 2 0.225 0.0493202 0.5
11 2 0.25 0.000100383 0.5
12 2 0.275 0.0493202 0.5
13 2 0.3 0.000100383 0.5
14 2 0.325 0.0493202 0.5
15 2 0.35 0.000100383 0.5
16 2 0.375 0.0493202 0.5
17 2 0.4 0.000100383 0.5
18 2 0.425 0.0493202 0.5
19 2 0.45 0.000100383 0.5
20 2 0.475 0.0493202 0.5
21 2 0.5 0.000100383 0.5
22 2 0.525 0.0493202 0.5
23 2 0.55 0.000100383 0.5
24 2 0.575 0.0493202 0.5
25 2 0.6 0.000100383 0.5
26 2 0.625 0.0493202 0.5
27 2 0.65 0.000100383 0.5
28 2 0.675 0.0493202 0.5
29 2 0.7 0.000100383 0.5
30 2 0.725 0.0493202 0.5
31 2 0.75 0.000100383 0.5
32 2 0.775 0.0493202 0.5
33 2 0.8 0.000100383 0.5
34 2 0.825 0.0493202 0.5
35 2 0.85 0.000100383 0.5
36 2 0.875 0.0493202 0.5
37 2 0.9 0.000100383 0.5
38 2 0.925 0.0493202 0.5
39 2 0.95 0.000100383 0.5
40 2 0.975 0.0493202 0.5
41 2 1.06974e-17 0.0983382 0.5
42 1 0.025 0.147348 0.5
43 2 0.05 0.0983382 0.5
44 1 0.075 0.147348 0.5
45 2 0.1 0.0983382 0.5
46 1 0.125 0.147348 0.5
47 2 0.15 0.0983382 0.5
48 1 0.175 0.147348 0.5
49 2 0.2 0.0983382 0.5
50 1 0.225 0.147348 0.5
51 2 0.25 0.0983382 0.5
52 1 0.275 0.147348 0.5
53 2 0.3 0.0983382 0.5
54 1 0.325 0.147348 0.5
55 2 0.35 0.0983382 0.5
56 1 0.375 0.147348 0.5
57 2 0.4 0.0983382 0.5
58 1 0.425 0.147348 0.5
59 2 0.45 0.0983382 0.5
60 1 0.475 0.147348 0.5
61 2 0.5 0.0983382 0.5
62 1 0.525 0.147348 0.5
63 2 0.55 0.0983382 0.5
64 1 0.575 0.147348 0.5
65 2 0.6 0.0983382 0.5
66 1 0.625 0.147348 0.5
67 2 0.65 0.0983382 0.5
68 1 0.675 0.147348 0.5
69 2 0.7 0.0983382 0.5
70 1 0.725 0.147348 0.5
71 2 0.75 0.0983382 0.5
72 1 0.775 0.147348 0.5
73 2 0.8 0.0983382 0.5
74 1 0.825 0.147348 0.5
75 2 0.85 0.0983382 0.5
76 1 0.875 0.147348 0.5
77 2 0.9 0.0983382 0.5
78 1 0.925 0.147348 0.5
79 2 0.95 0.0983382 0.5
80 1 0.975 0.147348 0.5
81 1 2.30284e-18 0.19638 0.5
82 1 0.025 0.24541 0.5
83 1 0.05 0.19638 0.5
84 1 0.075 0.24541 0.5
85 1 0.1 0.19638 0.5
86 1 0.125 0.24541 0.5
87 1 0.15 0.19638 0.5
88 1 0.175 0.24541 0.5
89 1 0.2 0.19638 0.5
90 1 0.225 0.24541 0.5
91 1 0.25 0.19638 0.5
92 1 0.275 0.24541 0.5
93 1 0.3 0.19638 0.5
94 1 0.325 0.24541 0.5
95 1 0.35 0.19638 0.5
96 1 0.375 0.24541 0.5
97 1 0.4 0.19638 0.5
98 1 0.425 0.24541 0.5
99 1 0.45 0.19638 0.5
100 1 0.475 0.24541 0.5
101 1 0.5 0.19638 0.5
102 1 0.525 0.24541 0.5
103 1 0.55 0.19638 0.5
104 1 0.575 0.24541 0.5
105 1 0.6 0.19638 0.5
106 1 0.625 0.24541 0.5
107 1 0.65 0.19638 0.5
108 1 0.675 0.24541 0.5
109 1 0.7 0.19638 0.5
110 1 0.725 0.24541 0.5
111 1 0.75 0.19638 0.5
112 1 0.775 0.24541 0.5
113 1 0.8 0.19638 0.5
114 1 0.825 0.24541 0.5
115 1 0.85 0.19638 0.5
116 1 0.875 0.24541 0.5
117 1 0.9 0.19638 0.5
118 1 0.925 0.24541 0.5
119 1 0.95 0.19638 0.5
120 1 0.975 0.24541 0.5
121 1 0 0.294448 0.5
122 1 0.025 0.34349 0.5
123 1 0.05 0.294448 0.5
124 1 0.075 0.34349 0.5
125 1 0.1 0.294448 0.5
126 1 0.125 0.34349 0.5
127 1 0.15 0.294448 0.5
128 1 0.175 0.34349 0.5
129 1 0.2 0.294448 0.5
130 1 0.225 0.34349 0.5
131 1 0.25 0.294448 0.5
132 1 0.275 0.34349 0.5
133 1 0.3 0.294448 0.5
134 1 0.325 0.34349 0.5
135 1 0.35 0.294448 0.5
136 1 0.375 0.34349 0.5
137 1 0.4 0.294448 0.5
138 1 0.425 0.34349 0.5
139 1 0.45 0.294448 0.5
140 1 0.475 0.34349 0.5
141 1 0.5 0.294448 0.5
142 1 0.525 0.34349 0.5
143 1 0.55 0.294448 0.5
144 1 0.575 0.34349 0.5
145 1 0.6 0.294448 0.5
146 1 0.625 0.34349 0.5
147 1 0.65 0.294448 0.5
148 1 0.675 0.34349 0.5
149 1 0.7 0.294448 0.5
150 1 0.725 0.34349 0.5
151 1 0.75 0.294448 0.5
152 1 0.775 0.34349 0.5
153 1 0.8 0.294448 0.5
154 1 0.825 0.34349 0.5
155 1 0.85 0.294448 0.5
156 1 0.875 0.34349 0.5
157 1 0.9 0.294448 0.5
158 1 0.925 0.34349 0.5
159 1 0.95 0.294448 0.5
160 1 0.975 0.34349 0.5
161 1 0 0.392526 0.5
162 1 0.025 0.441563 0.5
163 1 0.05 0.392526 0.5
164 1 0.075 0.441563 0.5
165 1 0.1 0.392526 0.5
166 1 0.125 0.441563 0.5
167 1 0.15 0.392526 0.5
168 1 0.175 0.441563 0.5
169 1 0.2 0.392526 0.5
170 1 0.225 0.441563 0.5
171 1 0.25 0.392526 0.5
172 1 0.275 0.441563 0.5
173 1 0.3 0.392526 0.5
174 1 0.325 0.441563 0.5
175 1 0.35 0.392526 0.5
176 1 0.375 0.441563 0.5
177 1 0.4 0.392526 0.5
178 1 0.425 0.441563 0.5
179 1 0.45 0.392526 0.5
180 1 0.475 0.441563 0.5
181 1 0.5 0.392526 0.5
182 1 0.525 0.441563 0.5
183 1 0.55 0.392526 0.5
184 1 0.575 0.441563 0.5
185 1 0.6 0.392526 0.5
186 1 0.625 0.441563 0.5
187 1 0.65 0.392526 0.5
188 1 0.675 0.441563 0.5
189 1 0.7 0.392526 0.5
190 1 0.725 0.441563 0.5
191 1 0.75 0.392526 0.5
192 1 0.775 0.441563 0.5
193 1 0.8 0.392526 0.5
194 1 0.825 0.441563 0.5
195 1 0.85 0.392526 0.5
196 1 0.875 0.441563 0.5
197 1 0.9 0.392526 0.5
198 1 0.925 0.441563 0.5
199 1 0.95 0.392526 0.5
200 1 0.975 0.441563 0.5
201 1 1.08893e-18 0.490602 0.5
202 1 0.025 0.539641 0.5
203 1 0.05 0.490602 0.5
204 1 0.075 0.539641 0.5
205 1 0.1 0.490602 0.5
206 1 0.125 0.539641 0.5
207 1 0.15 0.490602 0.5
208 1 0.175 0.539641 0.5
209 1 0.2 0.490602 0.5
210 1 0.225 0.539641 0.5
211 1 0.25 0.490602 0.5
212 1 0.275 0.539641 0.5
213 1 0.3 0.490602 0.5
214 1 0.325 0.539641 0.5
215 1 0.35 0.490602 0.5
216 1 0.375 0.539641 0.5
217 1 0.4 0.490602 0.5
218 1 0.425 0.539641 0.5
219 1 0.45 0.490602 0.5
220 1 0.475 0.539641 0.5
221 1 0.5 0.490602 0.5
222 1 0.525 0.539641 0.5
223 1 0.55 0.490602 0.5
224 1 0.575 0.539641 0.5
225 1 0.6 0.490602 0.5
226 1 0.625 0.539641 0.5
227 1 0.65 0.490602 0.5
228 1 0.675 0.539641 0.5
229 1 0.7 0.490602 0.5
230 1 0.725 0.539641 0.5
231 1 0.75 0.490602 0.5
232 1 0.775 0.539641 0.5
233 1 0.8 0.490602 0.5
234 1 0.825 0.539641 0.5
235 1 0.85 0.490602 0.5
236 1 0.875 0.539641 0.5
237 1 0.9 0.490602 0.5
238 1 0.925 0.539641 0.5
239 1 0.95 0.490602 0.5
240 1 0.975 0.539641 0.5
241 1 0 0.588678 0.5
242 1 0.025 0.637714 0.5
243 1 0.05 0.588678 0.5
244 1 0.075 0.637714 0.5
245 1 0.1 0.588678 0.5
246 1 0.125 0.637714 0.5
247 1 0.15 0.588678 0.5
248 1 0.175 0.637714 0.5
249 1 0.2 0.588678 0.5
250 1 0.225 0.637714 0.5
251 1 0.25 0.588678 0.5
252 1 0.275 0.637714 0.5
253 1 0.3 0.588678 0.5
254 1 0.325 0.637714 0.5
255 1 0.35 0.588678 0.5
256 1 0.375 0.637714 0.5
257 1 0.4 0.588678 0.5
258 1 0.425 0.637714 0.5
259 1 0.45 0.588678 0.5
260 1 0.475 0.637714 0.5
261 1 0.5 0.588678 0.5
262 1 0.525 0.637714 0.5
263 1 0.55 0.588678 0.5
264 1 0.575 0.637714 0.5
265 1 0.6 0.588678 0.5
266 1 0.625 0.637714 0.5
267 1 0.65 0.588678 0.5
268 1 0.675 0.637714 0.5
269 1 0.7 0.588678 0.5
270 1 0.725 0.637714 0.5
271 1 0.75 0.588678 0.5
272 1 0.775 0.637714 0.5
273 1 0.8 0.588678 0.5
274 1 0.825 0.637714 0.5
275 1 0.85 0.588678 0.5
276 1 0.875 0.637714 0.5
277 1 0.9 0.588678 0.5
278 1 0.925 0.637714 0.5
279 1 0.95 0.588678 0.5
280 1 0.975 0.637714 0.5
281 1 1.89763e-18 0.686756 0.5
282 1 0.025 0.735793 0.5
283 1 0.05 0.686756 0.5
284 1 0.075 0.735793 0.5
285 1 0.1 0.686756 0.5
286 1 0.125 0.735793 0.5
287 1 0.15 0.686756 0.5
288 1 0.175 0.735793 0.5
289 1 0.2 0.686756 0.5
290 1 0.225 0.735793 0.5
291 1 0.25 0.686756 0.5
292 1 0.275 0.735793 0.5
293 1 0.3 0.686756 0.5
294 1 0.325 0.735793 0.5
295 1 0.35 0.686756 0.5
296 1 0.375 0.735793 0.5
297 1 0.4 0.686756 0.5
298 1 0.425 0.735793 0.5
299 1 0.45 0.686756 0.5
300 1 0.475 0.735793 0.5
301 1 0.5 0.686756 0.5
302 1 0.525 0.735793 0.5
303 1 0.55 0.686756 0.5
304 1 0.575 0.735793 0.5
305 1 0.6 0.686756 0.5
306 1 0.625 0.735793 0.5
307 1 0.65 0.686756 0.5
308 1 0.675 0.735793 0.5
309 1 0.7 0.686756 0.5
310 1 0.725 0.735793 0.5
311 1 0.75 0.686756 0.5
312 1 0.775 0.735793 0.5
313 1 0.8 0.686756 0.5
314 1 0.825 0.735793 0.5
315 1 0.85 0.686756 0.5
316 1 0.875 0.735793 0.5
317 1 0.9 0.686756 0.5
318 1 0.925 0.735793 0.5
319 1 0.95 0.686756 0.5
320 1 0.975 0.735793 0.5
321 1 4.28459e-18 0.784824 0.5
322 1 0.025 0.833856 0.5
323 1 0.05 0.784824 0.5
324 1 0.075 0.833856 0.5
325 1 0.1 0.784824 0.5
326 1 0.125 0.833856 0.5
327 1 0.15 0.784824 0.5
328 1 0.175 0.833856 0.5
329 1 0.2 0.784824 0.5
330 1 0.225 0.833856 0.5
331 1 0.25 0.784824 0.5
332 1 0.275 0.833856 0.5
333 1 0.3 0.784824 0.5
334 1 0.325 0.833856 0.5
335 1 0.35 0.784824 0.5
336 1 0.375 0.833856 0.5
337 1 0.4 0.784824 0.5
338 1 0.425 0.833856 0.5
339 1 0.45 0.784824 0.5
340 1 0.475 0.833856 0.5
341 1 0.5 0.784824 0.5
342 1 0.525 0.833856 0.5
343 1 0.55 0.784824 0.5
344 1 0.575 0.833856 0.5
345 1 0.6 0.784824 0.5
346 1 0.625 0.833856 0.5
347 1 0.65 0.784824 0.5
348 1 0.675 0.833856 0.5
349 1 0.7 0.784824 0.5
350 1 0.725 0.833856 0.5
351 1 0.75 0.784824 0.5
352 1 0.775 0.833856 0.5
353 1 0.8 0.784824 0.5
354 1 0.825 0.833856 0.5
355 1 0.85 0.784824 0.5
356 1 0.875 0.833856 0.5
357 1 0.9 0.784824 0.5
358 1 0.925 0.833856 0.5
359 1 0.95 0.784824 0.5
360 1 0.975 0.833856 0.5
361 1 0 0.882866 0.5
362 1 0.025 0.931884 0.5
363 1 0.05 0.882866 0.5
364 1 0.075 0.931884 0.5
365 1 0.1 0.882866 0.5
366 1 0.125 0.931884 0.5
367 1 0.15 0.882866 0.5
368 1 0.175 0.931884 0.5
369 1 0.2 0.882866 0.5
370 1 0.225 0.931884 0.5
371 1 0.25 0.882866 0.5
372 1 0.275 0.931884 0.5
373 1 0.3 0.882866 0.5
374 1 0.325 0.931884 0.5
375 1 0.35 0.882866 0.5
376 1 0.375 0.931884 0.5
377 1 0.4 0.882866 0.5
378 1 0.425 0.931884 0.5
393 1 0.8 0.882866 0.5
394 1 0.825 0.931884 0.5
395 1 0.85 0.882866 0.5
396 1 0.875 0.931884 0.5
397 1 0.9 0.882866 0.5
398 1 0.925 0.931884 0.5
399 1 0.95 0.882866 0.5
400 1 0.975 0.931884 0.5
401 1 2.28651e-18 0.981104 0.5
402 1 0.05 0.981104 0.5
403 1 0.1 0.981104 0.5
404 1 0.15 0.981104 0.5
405 1 0.2 0.981104 0.5
406 1 0.25 0.981104 0.5
407 1 0.3 0.981104 0.5
408 1 0.35 0.981104 0.5
409 1 0.4 0.981104 0.5
417 1 0.8 0.981104 0.5
418 1 0.85 0.981104 0.5
419 1 0.9 0.981104 0.5
420 1 0.95 0.981104 0.5
ITEM: TIMESTEP
10
ITEM: NUMBER OF ATOMS
399
ITEM: BOX BOUNDS pp ss pp
0.0000000000000000e+00 2.2653923264628304e+01
2.1918578738844549e-01 1.9916696838273182e+01
-2.8317404080785380e-01 2.8317404080785380e-01
ITEM: ATOMS id type xs ys zs
1 2 8.07463e-18 9.96207e-05 0.5
2 2 0.025 0.0489457 0.5
3 2 0.05 9.96207e-05 0.5
4 2 0.075 0.0489457 0.5
5 2 0.1 9.96207e-05 0.5
6 2 0.125 0.0489457 0.5
7 2 0.15 9.96207e-05 0.5
8 2 0.175 0.0489457 0.5
9 2 0.2 9.96207e-05 0.5
10 2 0.225 0.0489457 0.5
11 2 0.25 9.96207e-05 0.5
12 2 0.275 0.0489457 0.5
13 2 0.3 9.96207e-05 0.5
14 2 0.325 0.0489457 0.5
15 2 0.35 9.96207e-05 0.5
16 2 0.375 0.0489457 0.5
17 2 0.4 9.96207e-05 0.5
18 2 0.425 0.0489457 0.5
19 2 0.45 9.96207e-05 0.5
20 2 0.475 0.0489457 0.5
21 2 0.5 9.96207e-05 0.5
22 2 0.525 0.0489457 0.5
23 2 0.55 9.96207e-05 0.5
24 2 0.575 0.0489457 0.5
25 2 0.6 9.96207e-05 0.5
26 2 0.625 0.0489457 0.5
27 2 0.65 9.96207e-05 0.5
28 2 0.675 0.0489457 0.5
29 2 0.7 9.96207e-05 0.5
30 2 0.725 0.0489457 0.5
31 2 0.75 9.96207e-05 0.5
32 2 0.775 0.0489457 0.5
33 2 0.8 9.96207e-05 0.5
34 2 0.825 0.0489457 0.5
35 2 0.85 9.96207e-05 0.5
36 2 0.875 0.0489457 0.5
37 2 0.9 9.96207e-05 0.5
38 2 0.925 0.0489457 0.5
39 2 0.95 9.96207e-05 0.5
40 2 0.975 0.0489457 0.5
41 2 1.06974e-17 0.0975914 0.5
42 1 0.025 0.146238 0.5
43 2 0.05 0.0975914 0.5
44 1 0.075 0.146238 0.5
45 2 0.1 0.0975914 0.5
46 1 0.125 0.146238 0.5
47 2 0.15 0.0975914 0.5
48 1 0.175 0.146238 0.5
49 2 0.2 0.0975914 0.5
50 1 0.225 0.146238 0.5
51 2 0.25 0.0975914 0.5
52 1 0.275 0.146238 0.5
53 2 0.3 0.0975914 0.5
54 1 0.325 0.146238 0.5
55 2 0.35 0.0975914 0.5
56 1 0.375 0.146238 0.5
57 2 0.4 0.0975914 0.5
58 1 0.425 0.146238 0.5
59 2 0.45 0.0975914 0.5
60 1 0.475 0.146238 0.5
61 2 0.5 0.0975914 0.5
62 1 0.525 0.146238 0.5
63 2 0.55 0.0975914 0.5
64 1 0.575 0.146238 0.5
65 2 0.6 0.0975914 0.5
66 1 0.625 0.146238 0.5
67 2 0.65 0.0975914 0.5
68 1 0.675 0.146238 0.5
69 2 0.7 0.0975914 0.5
70 1 0.725 0.146238 0.5
71 2 0.75 0.0975914 0.5
72 1 0.775 0.146238 0.5
73 2 0.8 0.0975914 0.5
74 1 0.825 0.146238 0.5
75 2 0.85 0.0975914 0.5
76 1 0.875 0.146238 0.5
77 2 0.9 0.0975914 0.5
78 1 0.925 0.146238 0.5
79 2 0.95 0.0975914 0.5
80 1 0.975 0.146238 0.5
81 1 2.7964e-19 0.194891 0.5
82 1 0.025 0.24355 0.5
83 1 0.05 0.194891 0.5
84 1 0.075 0.24355 0.5
85 1 0.1 0.194891 0.5
86 1 0.125 0.24355 0.5
87 1 0.15 0.194891 0.5
88 1 0.175 0.24355 0.5
89 1 0.2 0.194891 0.5
90 1 0.225 0.24355 0.5
91 1 0.25 0.194891 0.5
92 1 0.275 0.24355 0.5
93 1 0.3 0.194891 0.5
94 1 0.325 0.24355 0.5
95 1 0.35 0.194891 0.5
96 1 0.375 0.24355 0.5
97 1 0.4 0.194891 0.5
98 1 0.425 0.24355 0.5
99 1 0.45 0.194891 0.5
100 1 0.475 0.24355 0.5
101 1 0.5 0.194891 0.5
102 1 0.525 0.24355 0.5
103 1 0.55 0.194891 0.5
104 1 0.575 0.24355 0.5
105 1 0.6 0.194891 0.5
106 1 0.625 0.24355 0.5
107 1 0.65 0.194891 0.5
108 1 0.675 0.24355 0.5
109 1 0.7 0.194891 0.5
110 1 0.725 0.24355 0.5
111 1 0.75 0.194891 0.5
112 1 0.775 0.24355 0.5
113 1 0.8 0.194891 0.5
114 1 0.825 0.24355 0.5
115 1 0.85 0.194891 0.5
116 1 0.875 0.24355 0.5
117 1 0.9 0.194891 0.5
118 1 0.925 0.24355 0.5
119 1 0.95 0.194891 0.5
120 1 0.975 0.24355 0.5
121 1 5.2002e-18 0.292214 0.5
122 1 0.025 0.34088 0.5
123 1 0.05 0.292214 0.5
124 1 0.075 0.34088 0.5
125 1 0.1 0.292214 0.5
126 1 0.125 0.34088 0.5
127 1 0.15 0.292214 0.5
128 1 0.175 0.34088 0.5
129 1 0.2 0.292214 0.5
130 1 0.225 0.34088 0.5
131 1 0.25 0.292214 0.5
132 1 0.275 0.34088 0.5
133 1 0.3 0.292214 0.5
134 1 0.325 0.34088 0.5
135 1 0.35 0.292214 0.5
136 1 0.375 0.34088 0.5
137 1 0.4 0.292214 0.5
138 1 0.425 0.34088 0.5
139 1 0.45 0.292214 0.5
140 1 0.475 0.34088 0.5
141 1 0.5 0.292214 0.5
142 1 0.525 0.34088 0.5
143 1 0.55 0.292214 0.5
144 1 0.575 0.34088 0.5
145 1 0.6 0.292214 0.5
146 1 0.625 0.34088 0.5
147 1 0.65 0.292214 0.5
148 1 0.675 0.34088 0.5
149 1 0.7 0.292214 0.5
150 1 0.725 0.34088 0.5
151 1 0.75 0.292214 0.5
152 1 0.775 0.34088 0.5
153 1 0.8 0.292214 0.5
154 1 0.825 0.34088 0.5
155 1 0.85 0.292214 0.5
156 1 0.875 0.34088 0.5
157 1 0.9 0.292214 0.5
158 1 0.925 0.34088 0.5
159 1 0.95 0.292214 0.5
160 1 0.975 0.34088 0.5
161 1 -5.14584e-19 0.389545 0.5
162 1 0.025 0.43821 0.5
163 1 0.05 0.389545 0.5
164 1 0.075 0.43821 0.5
165 1 0.1 0.389545 0.5
166 1 0.125 0.43821 0.5
167 1 0.15 0.389545 0.5
168 1 0.175 0.43821 0.5
169 1 0.2 0.389545 0.5
170 1 0.225 0.43821 0.5
171 1 0.25 0.389545 0.5
172 1 0.275 0.43821 0.5
173 1 0.3 0.389545 0.5
174 1 0.325 0.43821 0.5
175 1 0.35 0.389545 0.5
176 1 0.375 0.43821 0.5
177 1 0.4 0.389545 0.5
178 1 0.425 0.43821 0.5
179 1 0.45 0.389545 0.5
180 1 0.475 0.43821 0.5
181 1 0.5 0.389545 0.5
182 1 0.525 0.43821 0.5
183 1 0.55 0.389545 0.5
184 1 0.575 0.43821 0.5
185 1 0.6 0.389545 0.5
186 1 0.625 0.43821 0.5
187 1 0.65 0.389545 0.5
188 1 0.675 0.43821 0.5
189 1 0.7 0.389545 0.5
190 1 0.725 0.43821 0.5
191 1 0.75 0.389545 0.5
192 1 0.775 0.43821 0.5
193 1 0.8 0.389545 0.5
194 1 0.825 0.43821 0.5
195 1 0.85 0.389545 0.5
196 1 0.875 0.43821 0.5
197 1 0.9 0.389545 0.5
198 1 0.925 0.43821 0.5
199 1 0.95 0.389545 0.5
200 1 0.975 0.43821 0.5
201 1 -1.26955e-18 0.486876 0.5
202 1 0.025 0.535542 0.5
203 1 0.05 0.486876 0.5
204 1 0.075 0.535542 0.5
205 1 0.1 0.486876 0.5
206 1 0.125 0.535542 0.5
207 1 0.15 0.486876 0.5
208 1 0.175 0.535542 0.5
209 1 0.2 0.486876 0.5
210 1 0.225 0.535542 0.5
211 1 0.25 0.486876 0.5
212 1 0.275 0.535542 0.5
213 1 0.3 0.486876 0.5
214 1 0.325 0.535542 0.5
215 1 0.35 0.486876 0.5
216 1 0.375 0.535542 0.5
217 1 0.4 0.486876 0.5
218 1 0.425 0.535542 0.5
219 1 0.45 0.486876 0.5
220 1 0.475 0.535542 0.5
221 1 0.5 0.486876 0.5
222 1 0.525 0.535542 0.5
223 1 0.55 0.486876 0.5
224 1 0.575 0.535542 0.5
225 1 0.6 0.486876 0.5
226 1 0.625 0.535542 0.5
227 1 0.65 0.486876 0.5
228 1 0.675 0.535542 0.5
229 1 0.7 0.486876 0.5
230 1 0.725 0.535542 0.5
231 1 0.75 0.486876 0.5
232 1 0.775 0.535542 0.5
233 1 0.8 0.486876 0.5
234 1 0.825 0.535542 0.5
235 1 0.85 0.486876 0.5
236 1 0.875 0.535542 0.5
237 1 0.9 0.486876 0.5
238 1 0.925 0.535542 0.5
239 1 0.95 0.486876 0.5
240 1 0.975 0.535542 0.5
241 1 -5.10092e-37 0.584207 0.5
242 1 0.025 0.632873 0.5
243 1 0.05 0.584207 0.5
244 1 0.075 0.632873 0.5
245 1 0.1 0.584207 0.5
246 1 0.125 0.632873 0.5
247 1 0.15 0.584207 0.5
248 1 0.175 0.632873 0.5
249 1 0.2 0.584207 0.5
250 1 0.225 0.632873 0.5
251 1 0.25 0.584207 0.5
252 1 0.275 0.632873 0.5
253 1 0.3 0.584207 0.5
254 1 0.325 0.632873 0.5
255 1 0.35 0.584207 0.5
256 1 0.375 0.632873 0.5
257 1 0.4 0.584207 0.5
258 1 0.425 0.632873 0.5
259 1 0.45 0.584207 0.5
260 1 0.475 0.632873 0.5
261 1 0.5 0.584207 0.5
262 1 0.525 0.632873 0.5
263 1 0.55 0.584207 0.5
264 1 0.575 0.632873 0.5
265 1 0.6 0.584207 0.5
266 1 0.625 0.632873 0.5
267 1 0.65 0.584207 0.5
268 1 0.675 0.632873 0.5
269 1 0.7 0.584207 0.5
270 1 0.725 0.632873 0.5
271 1 0.75 0.584207 0.5
272 1 0.775 0.632873 0.5
273 1 0.8 0.584207 0.5
274 1 0.825 0.632873 0.5
275 1 0.85 0.584207 0.5
276 1 0.875 0.632873 0.5
277 1 0.9 0.584207 0.5
278 1 0.925 0.632873 0.5
279 1 0.95 0.584207 0.5
280 1 0.975 0.632873 0.5
281 1 2.1889e-18 0.681538 0.5
282 1 0.025 0.730202 0.5
283 1 0.05 0.681538 0.5
284 1 0.075 0.730202 0.5
285 1 0.1 0.681538 0.5
286 1 0.125 0.730202 0.5
287 1 0.15 0.681538 0.5
288 1 0.175 0.730202 0.5
289 1 0.2 0.681538 0.5
290 1 0.225 0.730202 0.5
291 1 0.25 0.681538 0.5
292 1 0.275 0.730202 0.5
293 1 0.3 0.681538 0.5
294 1 0.325 0.730202 0.5
295 1 0.35 0.681538 0.5
296 1 0.375 0.730202 0.5
297 1 0.4 0.681538 0.5
298 1 0.425 0.730202 0.5
299 1 0.45 0.681538 0.5
300 1 0.475 0.730202 0.5
301 1 0.5 0.681538 0.5
302 1 0.525 0.730202 0.5
303 1 0.55 0.681538 0.5
304 1 0.575 0.730202 0.5
305 1 0.6 0.681538 0.5
306 1 0.625 0.730202 0.5
307 1 0.65 0.681538 0.5
308 1 0.675 0.730202 0.5
309 1 0.7 0.681538 0.5
310 1 0.725 0.730202 0.5
311 1 0.75 0.681538 0.5
312 1 0.775 0.730202 0.5
313 1 0.8 0.681538 0.5
314 1 0.825 0.730202 0.5
315 1 0.85 0.681538 0.5
316 1 0.875 0.730202 0.5
317 1 0.9 0.681538 0.5
318 1 0.925 0.730202 0.5
319 1 0.95 0.681538 0.5
320 1 0.975 0.730202 0.5
321 1 2.18089e-18 0.778861 0.5
322 1 0.025 0.827514 0.5
323 1 0.05 0.778861 0.5
324 1 0.075 0.827514 0.5
325 1 0.1 0.778861 0.5
326 1 0.125 0.827514 0.5
327 1 0.15 0.778861 0.5
328 1 0.175 0.827514 0.5
329 1 0.2 0.778861 0.5
330 1 0.225 0.827514 0.5
331 1 0.25 0.778861 0.5
332 1 0.275 0.827514 0.5
333 1 0.3 0.778861 0.5
334 1 0.325 0.827514 0.5
335 1 0.35 0.778861 0.5
336 1 0.375 0.827514 0.5
337 1 0.4 0.778861 0.5
338 1 0.425 0.827514 0.5
339 1 0.45 0.778861 0.5
340 1 0.475 0.827513 0.5
341 1 0.5 0.778861 0.5
342 1 0.525 0.827513 0.5
343 1 0.55 0.778861 0.5
344 1 0.574983 0.827474 0.5
345 1 0.6 0.778861 0.5
346 1 0.624985 0.827464 0.5
347 1 0.65 0.778862 0.5
348 1 0.67505 0.827418 0.5
349 1 0.7 0.778861 0.5
350 1 0.724999 0.827515 0.5
351 1 0.75 0.778861 0.5
352 1 0.775 0.827514 0.5
353 1 0.8 0.778861 0.5
354 1 0.825 0.827514 0.5
355 1 0.85 0.778861 0.5
356 1 0.875 0.827514 0.5
357 1 0.9 0.778861 0.5
358 1 0.925 0.827514 0.5
359 1 0.95 0.778861 0.5
360 1 0.975 0.827514 0.5
361 1 -2.7567e-19 0.876161 0.5
362 1 0.025 0.924807 0.5
363 1 0.05 0.876161 0.5
364 1 0.075 0.924807 0.5
365 1 0.1 0.876161 0.5
366 1 0.125 0.924807 0.5
367 1 0.15 0.876161 0.5
368 1 0.175 0.924807 0.5
369 1 0.2 0.876161 0.5
370 1 0.225 0.924807 0.5
371 1 0.25 0.876161 0.5
372 1 0.275 0.924807 0.5
373 1 0.3 0.876161 0.5
374 1 0.325 0.924807 0.5
375 1 0.35 0.876161 0.5
376 1 0.375 0.924807 0.5
377 1 0.4 0.876161 0.5
378 1 0.424995 0.924806 0.5
393 1 0.8 0.876161 0.5
394 1 0.825 0.924807 0.5
395 1 0.85 0.876161 0.5
396 1 0.875 0.924807 0.5
397 1 0.9 0.876161 0.5
398 1 0.925 0.924807 0.5
399 1 0.95 0.876161 0.5
400 1 0.975 0.924807 0.5
401 1 9.7783e-17 0.97366 0.5
402 1 0.05 0.97366 0.5
403 1 0.1 0.97366 0.5
404 1 0.15 0.97366 0.5
405 1 0.2 0.97366 0.5
406 1 0.25 0.97366 0.5
407 1 0.3 0.97366 0.5
408 1 0.35 0.97366 0.5
409 1 0.399998 0.973661 0.5
417 1 0.8 0.97366 0.5
418 1 0.85 0.97366 0.5
419 1 0.9 0.97366 0.5
420 1 0.95 0.97366 0.5
ITEM: TIMESTEP
20
ITEM: NUMBER OF ATOMS
399
ITEM: BOX BOUNDS pp ss pp
0.0000000000000000e+00 2.2653923264628304e+01
2.1918578738844549e-01 1.9916696838273182e+01
-2.8317404080785380e-01 2.8317404080785380e-01
ITEM: ATOMS id type xs ys zs
1 2 8.07463e-18 9.96207e-05 0.5
2 2 0.025 0.0489457 0.5
3 2 0.05 9.96207e-05 0.5
4 2 0.075 0.0489457 0.5
5 2 0.1 9.96207e-05 0.5
6 2 0.125 0.0489457 0.5
7 2 0.15 9.96207e-05 0.5
8 2 0.175 0.0489457 0.5
9 2 0.2 9.96207e-05 0.5
10 2 0.225 0.0489457 0.5
11 2 0.25 9.96207e-05 0.5
12 2 0.275 0.0489457 0.5
13 2 0.3 9.96207e-05 0.5
14 2 0.325 0.0489457 0.5
15 2 0.35 9.96207e-05 0.5
16 2 0.375 0.0489457 0.5
17 2 0.4 9.96207e-05 0.5
18 2 0.425 0.0489457 0.5
19 2 0.45 9.96207e-05 0.5
20 2 0.475 0.0489457 0.5
21 2 0.5 9.96207e-05 0.5
22 2 0.525 0.0489457 0.5
23 2 0.55 9.96207e-05 0.5
24 2 0.575 0.0489457 0.5
25 2 0.6 9.96207e-05 0.5
26 2 0.625 0.0489457 0.5
27 2 0.65 9.96207e-05 0.5
28 2 0.675 0.0489457 0.5
29 2 0.7 9.96207e-05 0.5
30 2 0.725 0.0489457 0.5
31 2 0.75 9.96207e-05 0.5
32 2 0.775 0.0489457 0.5
33 2 0.8 9.96207e-05 0.5
34 2 0.825 0.0489457 0.5
35 2 0.85 9.96207e-05 0.5
36 2 0.875 0.0489457 0.5
37 2 0.9 9.96207e-05 0.5
38 2 0.925 0.0489457 0.5
39 2 0.95 9.96207e-05 0.5
40 2 0.975 0.0489457 0.5
41 2 1.06974e-17 0.0975914 0.5
42 1 0.025 0.146247 0.5
43 2 0.05 0.0975914 0.5
44 1 0.075 0.146247 0.5
45 2 0.1 0.0975914 0.5
46 1 0.125 0.146247 0.5
47 2 0.15 0.0975914 0.5
48 1 0.175 0.146247 0.5
49 2 0.2 0.0975914 0.5
50 1 0.225 0.146247 0.5
51 2 0.25 0.0975914 0.5
52 1 0.275 0.146247 0.5
53 2 0.3 0.0975914 0.5
54 1 0.325 0.146247 0.5
55 2 0.35 0.0975914 0.5
56 1 0.375 0.146247 0.5
57 2 0.4 0.0975914 0.5
58 1 0.425 0.146247 0.5
59 2 0.45 0.0975914 0.5
60 1 0.475 0.146247 0.5
61 2 0.5 0.0975914 0.5
62 1 0.525 0.146247 0.5
63 2 0.55 0.0975914 0.5
64 1 0.575 0.146247 0.5
65 2 0.6 0.0975914 0.5
66 1 0.625 0.146247 0.5
67 2 0.65 0.0975914 0.5
68 1 0.675 0.146247 0.5
69 2 0.7 0.0975914 0.5
70 1 0.725 0.146247 0.5
71 2 0.75 0.0975914 0.5
72 1 0.775 0.146247 0.5
73 2 0.8 0.0975914 0.5
74 1 0.825 0.146247 0.5
75 2 0.85 0.0975914 0.5
76 1 0.875 0.146247 0.5
77 2 0.9 0.0975914 0.5
78 1 0.925 0.146247 0.5
79 2 0.95 0.0975914 0.5
80 1 0.975 0.146247 0.5
81 1 -2.83932e-18 0.194904 0.5
82 1 0.025 0.243562 0.5
83 1 0.05 0.194904 0.5
84 1 0.075 0.243562 0.5
85 1 0.1 0.194904 0.5
86 1 0.125 0.243562 0.5
87 1 0.15 0.194904 0.5
88 1 0.175 0.243562 0.5
89 1 0.2 0.194904 0.5
90 1 0.225 0.243562 0.5
91 1 0.25 0.194904 0.5
92 1 0.275 0.243562 0.5
93 1 0.3 0.194904 0.5
94 1 0.325 0.243562 0.5
95 1 0.35 0.194904 0.5
96 1 0.375 0.243562 0.5
97 1 0.4 0.194904 0.5
98 1 0.425 0.243562 0.5
99 1 0.45 0.194904 0.5
100 1 0.475 0.243562 0.5
101 1 0.5 0.194904 0.5
102 1 0.525 0.243562 0.5
103 1 0.55 0.194904 0.5
104 1 0.575 0.243562 0.5
105 1 0.6 0.194904 0.5
106 1 0.625 0.243562 0.5
107 1 0.65 0.194904 0.5
108 1 0.675 0.243562 0.5
109 1 0.7 0.194904 0.5
110 1 0.725 0.243562 0.5
111 1 0.75 0.194904 0.5
112 1 0.775 0.243562 0.5
113 1 0.8 0.194904 0.5
114 1 0.825 0.243562 0.5
115 1 0.85 0.194904 0.5
116 1 0.875 0.243562 0.5
117 1 0.9 0.194904 0.5
118 1 0.925 0.243562 0.5
119 1 0.95 0.194904 0.5
120 1 0.975 0.243562 0.5
121 1 8.07847e-16 0.292222 0.5
122 1 0.025 0.340884 0.5
123 1 0.05 0.292222 0.5
124 1 0.075 0.340884 0.5
125 1 0.1 0.292222 0.5
126 1 0.125 0.340884 0.5
127 1 0.15 0.292222 0.5
128 1 0.175 0.340884 0.5
129 1 0.2 0.292222 0.5
130 1 0.225 0.340884 0.5
131 1 0.25 0.292222 0.5
132 1 0.275 0.340884 0.5
133 1 0.3 0.292222 0.5
134 1 0.325 0.340884 0.5
135 1 0.35 0.292222 0.5
136 1 0.375 0.340884 0.5
137 1 0.4 0.292222 0.5
138 1 0.425 0.340884 0.5
139 1 0.45 0.292222 0.5
140 1 0.475 0.340884 0.5
141 1 0.5 0.292222 0.5
142 1 0.525 0.340884 0.5
143 1 0.55 0.292222 0.5
144 1 0.575 0.340884 0.5
145 1 0.6 0.292222 0.5
146 1 0.625 0.340884 0.5
147 1 0.65 0.292222 0.5
148 1 0.675 0.340884 0.5
149 1 0.7 0.292222 0.5
150 1 0.725 0.340884 0.5
151 1 0.75 0.292222 0.5
152 1 0.775 0.340884 0.5
153 1 0.8 0.292222 0.5
154 1 0.825 0.340884 0.5
155 1 0.85 0.292222 0.5
156 1 0.875 0.340884 0.5
157 1 0.9 0.292222 0.5
158 1 0.925 0.340884 0.5
159 1 0.95 0.292222 0.5
160 1 0.975 0.340884 0.5
161 1 4.93358e-13 0.389547 0.5
162 1 0.025 0.438211 0.5
163 1 0.05 0.389547 0.5
164 1 0.075 0.438211 0.5
165 1 0.1 0.389547 0.5
166 1 0.125 0.438211 0.5
167 1 0.15 0.389547 0.5
168 1 0.175 0.438211 0.5
169 1 0.2 0.389547 0.5
170 1 0.225 0.438211 0.5
171 1 0.25 0.389547 0.5
172 1 0.275 0.438211 0.5
173 1 0.3 0.389547 0.5
174 1 0.325 0.438211 0.5
175 1 0.35 0.389547 0.5
176 1 0.375 0.438211 0.5
177 1 0.4 0.389547 0.5
178 1 0.425 0.438211 0.5
179 1 0.45 0.389547 0.5
180 1 0.475 0.438211 0.5
181 1 0.5 0.389547 0.5
182 1 0.525 0.438211 0.5
183 1 0.55 0.389547 0.5
184 1 0.575 0.438211 0.5
185 1 0.6 0.389547 0.5
186 1 0.625 0.438211 0.5
187 1 0.65 0.389547 0.5
188 1 0.675 0.438211 0.5
189 1 0.7 0.389547 0.5
190 1 0.725 0.438211 0.5
191 1 0.75 0.389547 0.5
192 1 0.775 0.438211 0.5
193 1 0.8 0.389547 0.5
194 1 0.825 0.438211 0.5
195 1 0.85 0.389547 0.5
196 1 0.875 0.438211 0.5
197 1 0.9 0.389547 0.5
198 1 0.925 0.438211 0.5
199 1 0.95 0.389547 0.5
200 1 0.975 0.438211 0.5
201 1 2.51057e-12 0.486876 0.5
202 1 0.025 0.535541 0.5
203 1 0.05 0.486876 0.5
204 1 0.075 0.535541 0.5
205 1 0.1 0.486876 0.5
206 1 0.125 0.535541 0.5
207 1 0.15 0.486876 0.5
208 1 0.175 0.535541 0.5
209 1 0.2 0.486876 0.5
210 1 0.225 0.535541 0.5
211 1 0.25 0.486876 0.5
212 1 0.275 0.535541 0.5
213 1 0.3 0.486876 0.5
214 1 0.325 0.535541 0.5
215 1 0.35 0.486876 0.5
216 1 0.375 0.535541 0.5
217 1 0.4 0.486876 0.5
218 1 0.425 0.535541 0.5
219 1 0.45 0.486876 0.5
220 1 0.475 0.53554 0.5
221 1 0.5 0.486876 0.5
222 1 0.525 0.53554 0.5
223 1 0.55 0.486876 0.5
224 1 0.575 0.53554 0.5
225 1 0.6 0.486876 0.5
226 1 0.625 0.535539 0.5
227 1 0.65 0.486876 0.5
228 1 0.675 0.535539 0.5
229 1 0.7 0.486876 0.5
230 1 0.725 0.535539 0.5
231 1 0.75 0.486876 0.5
232 1 0.775 0.53554 0.5
233 1 0.8 0.486876 0.5
234 1 0.825 0.53554 0.5
235 1 0.85 0.486876 0.5
236 1 0.875 0.535541 0.5
237 1 0.9 0.486876 0.5
238 1 0.925 0.535541 0.5
239 1 0.95 0.486876 0.5
240 1 0.975 0.535541 0.5
241 1 -7.50016e-10 0.584205 0.5
242 1 0.025 0.632869 0.5
243 1 0.05 0.584205 0.5
244 1 0.075 0.632869 0.5
245 1 0.1 0.584205 0.5
246 1 0.125 0.632869 0.5
247 1 0.15 0.584205 0.5
248 1 0.175 0.632869 0.5
249 1 0.2 0.584205 0.5
250 1 0.225 0.632869 0.5
251 1 0.25 0.584205 0.5
252 1 0.275 0.632869 0.5
253 1 0.3 0.584205 0.5
254 1 0.325 0.632869 0.5
255 1 0.35 0.584205 0.5
256 1 0.375 0.632869 0.5
257 1 0.4 0.584205 0.5
258 1 0.424999 0.632868 0.5
259 1 0.449999 0.584204 0.5
260 1 0.474997 0.632864 0.5
261 1 0.499999 0.584203 0.5
262 1 0.524995 0.632859 0.5
263 1 0.549999 0.584201 0.5
264 1 0.574995 0.632854 0.5
265 1 0.599999 0.584199 0.5
266 1 0.624997 0.63285 0.5
267 1 0.65 0.584199 0.5
268 1 0.675 0.632848 0.5
269 1 0.700001 0.584199 0.5
270 1 0.725005 0.632848 0.5
271 1 0.750002 0.5842 0.5
272 1 0.775008 0.632852 0.5
273 1 0.800002 0.584201 0.5
274 1 0.825004 0.632863 0.5
275 1 0.850001 0.584204 0.5
276 1 0.875001 0.632867 0.5
277 1 0.9 0.584205 0.5
278 1 0.925 0.632868 0.5
279 1 0.95 0.584205 0.5
280 1 0.975 0.632869 0.5
281 1 -5.80371e-10 0.68153 0.5
282 1 0.025 0.73019 0.5
283 1 0.05 0.68153 0.5
284 1 0.075 0.73019 0.5
285 1 0.1 0.68153 0.5
286 1 0.125 0.73019 0.5
287 1 0.15 0.68153 0.5
288 1 0.175 0.73019 0.5
289 1 0.2 0.68153 0.5
290 1 0.225 0.73019 0.5
291 1 0.25 0.68153 0.5
292 1 0.275 0.73019 0.5
293 1 0.3 0.68153 0.5
294 1 0.325 0.730189 0.5
295 1 0.35 0.68153 0.5
296 1 0.375001 0.73019 0.5
297 1 0.4 0.681531 0.5
298 1 0.425001 0.730195 0.5
299 1 0.449997 0.681529 0.5
300 1 0.474993 0.730192 0.5
301 1 0.49999 0.681519 0.5
302 1 0.524975 0.730168 0.5
303 1 0.549985 0.681506 0.5
304 1 0.574964 0.730136 0.5
305 1 0.599986 0.681493 0.5
306 1 0.624978 0.730101 0.5
307 1 0.649995 0.681483 0.5
308 1 0.675017 0.730069 0.5
309 1 0.700011 0.681476 0.5
310 1 0.725064 0.730059 0.5
311 1 0.750025 0.681479 0.5
312 1 0.775045 0.730126 0.5
313 1 0.800016 0.681508 0.5
314 1 0.825019 0.73017 0.5
315 1 0.850005 0.681524 0.5
316 1 0.875005 0.730185 0.5
317 1 0.900001 0.681529 0.5
318 1 0.925001 0.730189 0.5
319 1 0.95 0.68153 0.5
320 1 0.975 0.73019 0.5
321 1 4.58017e-08 0.778847 0.5
322 1 0.025 0.827502 0.5
323 1 0.05 0.778847 0.5
324 1 0.075 0.827502 0.5
325 1 0.1 0.778847 0.5
326 1 0.125 0.827502 0.5
327 1 0.15 0.778847 0.5
328 1 0.175 0.827502 0.5
329 1 0.2 0.778847 0.5
330 1 0.225 0.827502 0.5
331 1 0.25 0.778847 0.5
332 1 0.275 0.827502 0.5
333 1 0.3 0.778847 0.5
334 1 0.325 0.827501 0.5
335 1 0.35 0.778847 0.5
336 1 0.375002 0.827502 0.5
337 1 0.400003 0.778851 0.5
338 1 0.425012 0.827517 0.5
339 1 0.450007 0.778867 0.5
340 1 0.475029 0.827566 0.5
341 1 0.499989 0.778866 0.5
342 1 0.525005 0.827568 0.5
343 1 0.549952 0.778813 0.5
344 1 0.574969 0.827423 0.5
345 1 0.599952 0.77873 0.5
346 1 0.625051 0.827199 0.5
347 1 0.650024 0.778633 0.5
348 1 0.675301 0.826966 0.5
349 1 0.70014 0.778568 0.5
350 1 0.725234 0.827206 0.5
351 1 0.75011 0.778697 0.5
352 1 0.775125 0.827386 0.5
353 1 0.800054 0.778794 0.5
354 1 0.825051 0.827466 0.5
355 1 0.850019 0.778832 0.5
356 1 0.875016 0.827493 0.5
357 1 0.900005 0.778844 0.5
358 1 0.925003 0.8275 0.5
359 1 0.950001 0.778847 0.5
360 1 0.975 0.827502 0.5
361 1 2.35828e-07 0.876156 0.5
362 1 0.0250001 0.924811 0.5
363 1 0.05 0.876156 0.5
364 1 0.075 0.924811 0.5
365 1 0.1 0.876156 0.5
366 1 0.125 0.924811 0.5
367 1 0.15 0.876156 0.5
368 1 0.175 0.924811 0.5
369 1 0.2 0.876156 0.5
370 1 0.225 0.924811 0.5
371 1 0.25 0.876156 0.5
372 1 0.274999 0.924811 0.5
373 1 0.299999 0.876155 0.5
374 1 0.324998 0.92481 0.5
375 1 0.349999 0.876154 0.5
376 1 0.374997 0.924808 0.5
377 1 0.400005 0.876157 0.5
378 1 0.425005 0.924816 0.5
393 1 0.800118 0.876086 0.5
394 1 0.825102 0.924783 0.5
395 1 0.850042 0.876135 0.5
396 1 0.875032 0.924804 0.5
397 1 0.900011 0.876151 0.5
398 1 0.925007 0.92481 0.5
399 1 0.950002 0.876155 0.5
400 1 0.975001 0.924811 0.5
401 1 6.05396e-07 0.973672 0.5
402 1 0.05 0.973672 0.5
403 1 0.1 0.973672 0.5
404 1 0.15 0.973672 0.5
405 1 0.2 0.973672 0.5
406 1 0.249999 0.973672 0.5
407 1 0.299998 0.973672 0.5
408 1 0.349994 0.973671 0.5
409 1 0.399983 0.97367 0.5