ITEM: TIMESTEP
0
ITEM: NUMBER OF ATOMS
21
ITEM: BOX BOUNDS pp ss pp
0.0000000000000000e+00 2.2653923264628304e+01
2.1918578738844549e-01 2.0501962279681717e+01
-2.8317404080785380e-01 2.8317404080785380e-01
ITEM: ATOMS id type xs ys zs
379 3 0.45 0.850879 0.5
380 3 0.475 0.898121 0.5
381 3 0.5 0.850879 0.5
382 3 0.525 0.898121 0.5
383 3 0.55 0.850879 0.5
384 3 0.575 0.898121 0.5
385 3 0.6 0.850879 0.5
386 3 0.625 0.898121 0.5
387 3 0.65 0.850879 0.5
388 3 0.675 0.898121 0.5
389 3 0.7 0.850879 0.5
390 3 0.725 0.898121 0.5
391 3 0.75 0.850879 0.5
392 3 0.775 0.898121 0.5
410 3 0.45 0.945558 0.5
411 3 0.5 0.945558 0.5
412 3 0.617995 0.999903 0.5
413 3 0.6 0.945558 0.5
414 3 0.65 0.945558 0.5
415 3 0.7 0.945558 0.5
416 3 0.75 0.945558 0.5
ITEM: TIMESTEP
10
ITEM: NUMBER OF ATOMS
21
ITEM: BOX BOUNDS pp ss pp
0.0000000000000000e+00 2.2653923264628304e+01
2.1918578738844549e-01 2.0501962279681717e+01
-2.8317404080785380e-01 2.8317404080785380e-01
ITEM: ATOMS id type xs ys zs
379 3 0.449995 0.850872 0.5
380 3 0.474959 0.898089 0.5
381 3 0.499998 0.850875 0.5
382 3 0.525034 0.898202 0.5
383 3 0.550004 0.850848 0.5
384 3 0.575004 0.898279 0.5
385 3 0.600005 0.850886 0.5
386 3 0.625036 0.898198 0.5
387 3 0.650002 0.850884 0.5
388 3 0.674959 0.898201 0.5
389 3 0.699996 0.850886 0.5
390 3 0.724996 0.898126 0.5
391 3 0.75 0.850879 0.5
392 3 0.775 0.898122 0.5
410 3 0.449965 0.945565 0.5
411 3 0.499851 0.945565 0.5
412 3 0.61824 0.998618 0.5
413 3 0.600248 0.945981 0.5
414 3 0.649767 0.946101 0.5
415 3 0.69995 0.945586 0.5
416 3 0.749996 0.945565 0.5
ITEM: TIMESTEP
20
ITEM: NUMBER OF ATOMS
21
ITEM: BOX BOUNDS pp ss pp
0.0000000000000000e+00 2.2653923264628304e+01
2.1918578738844549e-01 2.0501962279681717e+01
-2.8317404080785380e-01 2.8317404080785380e-01
ITEM: ATOMS id type xs ys zs
379 3 0.449972 0.850827 0.5
380 3 0.474853 0.898049 0.5
381 3 0.500031 0.850933 0.5
382 3 0.52499 0.898387 0.5
383 3 0.550025 0.850966 0.5
384 3 0.574939 0.898355 0.5
385 3 0.600057 0.851117 0.5
386 3 0.625149 0.89858 0.5
387 3 0.649988 0.851101 0.5
388 3 0.674747 0.898709 0.5
389 3 0.699873 0.851095 0.5
390 3 0.724866 0.898266 0.5
391 3 0.749934 0.850939 0.5
392 3 0.774951 0.898148 0.5
410 3 0.44975 0.945543 0.5
411 3 0.499486 0.945608 0.5
412 3 0.620785 0.994889 0.5
413 3 0.599845 0.945508 0.5
414 3 0.649494 0.947157 0.5
415 3 0.699788 0.945875 0.5
416 3 0.749921 0.945609 0.5
ITEM: TIMESTEP
30
ITEM: NUMBER OF ATOMS
21
ITEM: BOX BOUNDS pp ss pp
0.0000000000000000e+00 2.2653923264628304e+01
2.1918578738844549e-01 2.0383336243389991e+01
-2.8317404080785380e-01 2.8317404080785380e-01
ITEM: ATOMS id type xs ys zs
379 3 0.449922 0.855816 0.5
380 3 0.474742 0.903339 0.5
381 3 0.49997 0.855961 0.5
382 3 0.524874 0.903722 0.5
383 3 0.549932 0.855961 0.5
384 3 0.574823 0.903549 0.5
385 3 0.600011 0.856102 0.5
386 3 0.62504 0.903745 0.5
387 3 0.649978 0.856168 0.5
388 3 0.674807 0.903959 0.5
389 3 0.699859 0.856194 0.5
390 3 0.72482 0.903701 0.5
391 3 0.749869 0.856048 0.5
392 3 0.774894 0.903506 0.5
410 3 0.449588 0.951095 0.5
411 3 0.499296 0.951214 0.5
412 3 0.623225 0.999434 0.5
413 3 0.599788 0.95099 0.5
414 3 0.64969 0.951976 0.5
415 3 0.699777 0.951619 0.5
416 3 0.749896 0.951294 0.5
ITEM: TIMESTEP
40
ITEM: NUMBER OF ATOMS
21
ITEM: BOX BOUNDS pp ss pp
0.0000000000000000e+00 2.2653923264628304e+01
2.1918578738844549e-01 2.0383336243389991e+01
-2.8317404080785380e-01 2.8317404080785380e-01
ITEM: ATOMS id type xs ys zs
379 3 0.449866 0.855807 0.5
380 3 0.474659 0.903342 0.5
381 3 0.499918 0.855984 0.5
382 3 0.524813 0.903766 0.5
383 3 0.549892 0.856027 0.5
384 3 0.574832 0.903679 0.5
385 3 0.599934 0.856083 0.5
386 3 0.625035 0.903577 0.5
387 3 0.649966 0.856067 0.5
388 3 0.674936 0.903696 0.5
389 3 0.699919 0.856101 0.5
390 3 0.724887 0.903667 0.5
391 3 0.749896 0.856054 0.5
392 3 0.774908 0.903547 0.5
410 3 0.449476 0.951088 0.5
411 3 0.499174 0.951231 0.5
412 3 0.624605 0.999112 0.5
413 3 0.600121 0.951095 0.5
414 3 0.649986 0.951409 0.5
415 3 0.699871 0.951507 0.5
416 3 0.749925 0.951334 0.5
ITEM: TIMESTEP
50
ITEM: NUMBER OF ATOMS
21
ITEM: BOX BOUNDS pp ss pp
0.0000000000000000e+00 2.2653923264628304e+01
2.1918578738844549e-01 2.0383336243389991e+01
-2.8317404080785380e-01 2.8317404080785380e-01
ITEM: ATOMS id type xs ys zs
379 3 0.449829 0.85581 0.5
380 3 0.474611 0.903352 0.5
381 3 0.499895 0.856019 0.5
382 3 0.524797 0.903818 0.5
383 3 0.549888 0.856099 0.5
384 3 0.574881 0.903793 0.5
385 3 0.599914 0.856094 0.5
386 3 0.625093 0.903498 0.5
387 3 0.649982 0.855988 0.5
388 3 0.675047 0.90352 0.5
389 3 0.699977 0.855997 0.5
390 3 0.724967 0.903579 0.5
391 3 0.749946 0.856004 0.5
392 3 0.774954 0.903527 0.5
410 3 0.4494 0.951084 0.5
411 3 0.499095 0.951251 0.5
412 3 0.625352 0.999021 0.5
413 3 0.600398 0.951179 0.5
414 3 0.650214 0.95115 0.5
415 3 0.699987 0.951381 0.5
416 3 0.74998 0.951296 0.5
ITEM: TIMESTEP
60
ITEM: NUMBER OF ATOMS
21
ITEM: BOX BOUNDS pp ss pp
0.0000000000000000e+00 2.2653923264628304e+01
2.1918578738844549e-01 2.0383336243389991e+01
-2.8317404080785380e-01 2.8317404080785380e-01
ITEM: ATOMS id type xs ys zs
379 3 0.449811 0.855818 0.5
380 3 0.474587 0.903364 0.5
381 3 0.499889 0.856048 0.5
382 3 0.524797 0.903857 0.5
383 3 0.549896 0.856148 0.5
384 3 0.574922 0.903859 0.5
385 3 0.599918 0.856108 0.5
386 3 0.625143 0.903468 0.5
387 3 0.650004 0.855949 0.5
388 3 0.675119 0.903433 0.5
389 3 0.700019 0.855933 0.5
390 3 0.725025 0.903516 0.5
391 3 0.749985 0.855958 0.5
392 3 0.774994 0.903495 0.5
410 3 0.449356 0.951086 0.5
411 3 0.499051 0.951269 0.5
412 3 0.625717 0.998992 0.5
413 3 0.600557 0.951226 0.5
414 3 0.650348 0.95104 0.5
415 3 0.70007 0.951306 0.5
416 3 0.750029 0.951253 0.5
ITEM: TIMESTEP
70
ITEM: NUMBER OF ATOMS
21
ITEM: BOX BOUNDS pp ss pp
0.0000000000000000e+00 2.2653923264628304e+01
2.1918578738844549e-01 2.0383336243389991e+01
-2.8317404080785380e-01 2.8317404080785380e-01
ITEM: ATOMS id type xs ys zs
379 3 0.449799 0.855827 0.5
380 3 0.474573 0.903376 0.5
381 3 0.499888 0.856072 0.5
382 3 0.524801 0.903888 0.5
383 3 0.549905 0.856184 0.5
384 3 0.574955 0.903904 0.5
385 3 0.599928 0.85612 0.5
386 3 0.625185 0.903453 0.5
387 3 0.650025 0.855924 0.5
388 3 0.675174 0.903378 0.5
389 3 0.700052 0.855889 0.5
390 3 0.725071 0.90347 0.5
391 3 0.750018 0.855921 0.5
392 3 0.775029 0.903463 0.5
410 3 0.449325 0.951089 0.5
411 3 0.499022 0.951285 0.5
412 3 0.625945 0.998979 0.5
413 3 0.600666 0.951257 0.5
414 3 0.650443 0.950977 0.5
415 3 0.700136 0.951256 0.5
416 3 0.750073 0.951217 0.5
ITEM: TIMESTEP
80
ITEM: NUMBER OF ATOMS
21
ITEM: BOX BOUNDS pp ss pp
0.0000000000000000e+00 2.2653923264628304e+01
2.1918578738844549e-01 2.0383336243389991e+01
-2.8317404080785380e-01 2.8317404080785380e-01
ITEM: ATOMS id type xs ys zs
379 3 0.449791 0.855836 0.5
380 3 0.474562 0.903387 0.5
381 3 0.499889 0.856094 0.5
382 3 0.524805 0.903915 0.5
383 3 0.549915 0.856213 0.5
384 3 0.574983 0.903938 0.5
385 3 0.59994 0.856132 0.5
386 3 0.625222 0.903444 0.5
387 3 0.650046 0.855908 0.5
388 3 0.67522 0.90334 0.5
389 3 0.700081 0.855856 0.5
390 3 0.725111 0.903433 0.5
391 3 0.750046 0.855889 0.5
392 3 0.775061 0.903434 0.5
410 3 0.449301 0.951093 0.5
411 3 0.499 0.951299 0.5
412 3 0.626107 0.998971 0.5
413 3 0.60075 0.951279 0.5
414 3 0.650517 0.950936 0.5
415 3 0.700192 0.951219 0.5
416 3 0.750112 0.951185 0.5
ITEM: TIMESTEP
87
ITEM: NUMBER OF ATOMS
21
ITEM: BOX BOUNDS pp ss pp
0.0000000000000000e+00 2.2653923264628304e+01
2.1918578738844549e-01 2.0383336243389991e+01
-2.8317404080785380e-01 2.8317404080785380e-01
ITEM: ATOMS id type xs ys zs
379 3 0.449788 0.855841 0.5
380 3 0.474558 0.903393 0.5
381 3 0.49989 0.856104 0.5
382 3 0.524808 0.903927 0.5
383 3 0.54992 0.856227 0.5
384 3 0.574996 0.903952 0.5
385 3 0.599947 0.856138 0.5
386 3 0.625239 0.90344 0.5
387 3 0.650056 0.855902 0.5
388 3 0.67524 0.903325 0.5
389 3 0.700094 0.855842 0.5
390 3 0.72513 0.903417 0.5
391 3 0.75006 0.855874 0.5
392 3 0.775076 0.90342 0.5
410 3 0.449291 0.951096 0.5
411 3 0.49899 0.951306 0.5
412 3 0.626174 0.998969 0.5
413 3 0.600786 0.951288 0.5
414 3 0.65055 0.95092 0.5
415 3 0.700217 0.951203 0.5
416 3 0.750131 0.95117 0.5
ITEM: TIMESTEP
90
ITEM: NUMBER OF ATOMS
21
ITEM: BOX BOUNDS pp ss pp
0.0000000000000000e+00 2.2653923264628304e+01
2.1918578738844549e-01 2.0364503299493098e+01
-2.8317404080785380e-01 2.8317404080785380e-01
ITEM: ATOMS id type xs ys zs
379 3 0.449787 0.856642 0.5
380 3 0.474557 0.904239 0.5
381 3 0.49989 0.856906 0.5
382 3 0.524809 0.904774 0.5
383 3 0.549921 0.85703 0.5
384 3 0.574998 0.9048 0.5
385 3 0.599948 0.856939 0.5
386 3 0.625243 0.904284 0.5
387 3 0.650058 0.856701 0.5
388 3 0.675244 0.904167 0.5
389 3 0.700097 0.85664 0.5
390 3 0.725134 0.904258 0.5
391 3 0.750062 0.856671 0.5
392 3 0.775079 0.904261 0.5
410 3 0.449289 0.951986 0.5
411 3 0.498989 0.952197 0.5
412 3 0.626186 0.999902 0.5
413 3 0.600793 0.952179 0.5
414 3 0.650556 0.951806 0.5
415 3 0.700222 0.952089 0.5
416 3 0.750135 0.952057 0.5
ITEM: TIMESTEP
100
ITEM: NUMBER OF ATOMS
21
ITEM: BOX BOUNDS pp ss pp
0.0000000000000000e+00 2.2653923264628304e+01
2.1918578738844549e-01 2.0364503299493098e+01
-2.8317404080785380e-01 2.8317404080785380e-01
ITEM: ATOMS id type xs ys zs
379 3 0.449781 0.856652 0.5
380 3 0.47455 0.90425 0.5
381 3 0.499893 0.856926 0.5
382 3 0.524815 0.904797 0.5
383 3 0.549931 0.857054 0.5
384 3 0.575023 0.904825 0.5
385 3 0.599962 0.85695 0.5
386 3 0.625275 0.90428 0.5
387 3 0.65008 0.85669 0.5
388 3 0.675283 0.904141 0.5
389 3 0.700124 0.856615 0.5
390 3 0.725169 0.904229 0.5
391 3 0.750089 0.856644 0.5
392 3 0.775109 0.904233 0.5
410 3 0.44927 0.951991 0.5
411 3 0.498972 0.95221 0.5
412 3 0.626299 0.999898 0.5
413 3 0.600857 0.952194 0.5
414 3 0.650615 0.951781 0.5
415 3 0.70027 0.952062 0.5
416 3 0.750172 0.952029 0.5
ITEM: TIMESTEP
110
ITEM: NUMBER OF ATOMS
21
ITEM: BOX BOUNDS pp ss pp
0.0000000000000000e+00 2.2653923264628304e+01
2.1918578738844549e-01 2.0364503299493098e+01
-2.8317404080785380e-01 2.8317404080785380e-01
ITEM: ATOMS id type xs ys zs
379 3 0.449779 0.856657 0.5
380 3 0.474548 0.904256 0.5
381 3 0.499895 0.856935 0.5
382 3 0.524818 0.904807 0.5
383 3 0.549936 0.857065 0.5
384 3 0.575034 0.904836 0.5
385 3 0.599969 0.856954 0.5
386 3 0.62529 0.904278 0.5
387 3 0.650089 0.856686 0.5
388 3 0.675301 0.904131 0.5
389 3 0.700136 0.856605 0.5
390 3 0.725186 0.904216 0.5
391 3 0.750101 0.856631 0.5
392 3 0.775124 0.904221 0.5
410 3 0.449263 0.951994 0.5
411 3 0.498966 0.952217 0.5
412 3 0.626345 0.999897 0.5
413 3 0.600884 0.9522 0.5
414 3 0.65064 0.951771 0.5
415 3 0.700291 0.952051 0.5
416 3 0.750189 0.952016 0.5
ITEM: TIMESTEP
120
ITEM: NUMBER OF ATOMS
21
ITEM: BOX BOUNDS pp ss pp
0.0000000000000000e+00 2.2653923264628304e+01
2.1918578738844549e-01 2.0364503299493098e+01
-2.8317404080785380e-01 2.8317404080785380e-01
ITEM: ATOMS id type xs ys zs
379 3 0.449777 0.856664 0.5
380 3 0.474545 0.904263 0.5
381 3 0.499897 0.856946 0.5
382 3 0.524822 0.90482 0.5
383 3 0.549942 0.857078 0.5
384 3 0.575048 0.904848 0.5
385 3 0.599978 0.85696 0.5
386 3 0.625309 0.904277 0.5
387 3 0.650103 0.856682 0.5
388 3 0.675323 0.904119 0.5
389 3 0.700152 0.856592 0.5
390 3 0.725207 0.904201 0.5
391 3 0.750117 0.856615 0.5
392 3 0.775142 0.904203 0.5
410 3 0.449253 0.951999 0.5
411 3 0.498958 0.952224 0.5
412 3 0.626399 0.999895 0.5
413 3 0.600918 0.952207 0.5
414 3 0.650672 0.95176 0.5
415 3 0.700319 0.952037 0.5
416 3 0.750212 0.952 0.5
ITEM: TIMESTEP
124
ITEM: NUMBER OF ATOMS
21
ITEM: BOX BOUNDS pp ss pp
0.0000000000000000e+00 2.2653923264628304e+01
2.1918578738844549e-01 2.0364503299493098e+01
-2.8317404080785380e-01 2.8317404080785380e-01
ITEM: ATOMS id type xs ys zs
379 3 0.449776 0.856665 0.5
380 3 0.474544 0.904264 0.5
381 3 0.499897 0.856948 0.5
382 3 0.524823 0.904822 0.5
383 3 0.549944 0.85708 0.5
384 3 0.575051 0.904851 0.5
385 3 0.59998 0.856961 0.5
386 3 0.625313 0.904277 0.5
387 3 0.650105 0.856681 0.5
388 3 0.675327 0.904117 0.5
389 3 0.700154 0.85659 0.5
390 3 0.72521 0.904198 0.5
391 3 0.75012 0.856612 0.5
392 3 0.775145 0.9042 0.5
410 3 0.449252 0.951999 0.5
411 3 0.498957 0.952226 0.5
412 3 0.626408 0.999895 0.5
413 3 0.600923 0.952208 0.5
414 3 0.650677 0.951758 0.5
415 3 0.700324 0.952034 0.5
416 3 0.750217 0.951997 0.5
