LAMMPS (29 Aug 2024)
Running on 4 partitions of processors
    Step     MaxReplicaForce  MaxAtomForce      GradV0         GradV1         GradVc          EBF            EBR            RDT            RD1            PE1            RD2            PE2            RD3            PE3            RD4            PE4       
         0   4327.2753        7542371.4      0.082169072    4.9967651      4514.5424      0.42933428     0.42323635     1.8941131      0              -3.0535948     0.33333333     -2.6242605     0.66666667     -2.7623811     1              -3.0474969     
        87   0.095951838      0.0027794935   0.0055889267   0.065110089    0.12467831     0.0071014928   0.0022798007   2.3003372      0              -3.0535967     0.32435271     -3.0473127     0.62805027     -3.0464952     1              -3.048775      
Climbing replica = 3
    Step     MaxReplicaForce  MaxAtomForce      GradV0         GradV1         GradVc          EBF            EBR            RDT            RD1            PE1            RD2            PE2            RD3            PE3            RD4            PE4       
        87   0.141373         0.012340886    0.0055889267   0.065110089    0.12467831     0.0071014928   0.0022798007   2.3003372      0              -3.0535967     0.32435271     -3.0473127     0.62805027     -3.0464952     1              -3.048775      
       124   0.099582034      0.0073851372   0.0044220341   0.023873722    0.091308181    0.0071061754   0.0022863931   2.3081211      0              -3.0535968     0.32223904     -3.0473329     0.61673895     -3.0464906     1              -3.048777      
