LAMMPS (29 Aug 2024)
Processor partition = 1
# 2d NEB surface simulation, hop from surface to become adatom

dimension       2
boundary        p s p

atom_style      atomic
neighbor        0.3 bin
neigh_modify    delay 5
atom_modify     map array sort 0 0.0

variable        u uloop 20

# create geometry with flat surface

lattice         hex 0.9
Lattice spacing in x,y,z = 1.1326962 1.9618873 1.1326962
region          box block 0 20 0 10 -0.25 0.25

#create_box     3 box
#create_atoms   1 box
#mass           * 1.0
#write_data      initial.hop1

read_data        initial.hop1
Reading data file ...
  orthogonal box = (0 -0.0019618873 -0.28317404) to (22.653923 19.620835 0.28317404)
  1 by 1 by 1 MPI processor grid
  reading atoms ...
  420 atoms
  reading velocities ...
  420 velocities
  read_data CPU = 0.005 seconds

# LJ potentials

pair_style      lj/cut 2.5
pair_coeff      * * 1.0 1.0 2.5
pair_modify     shift yes

# initial minimization to relax surface

minimize        1.0e-6 1.0e-4 1000 10000

CITE-CITE-CITE-CITE-CITE-CITE-CITE-CITE-CITE-CITE-CITE-CITE-CITE

Your simulation uses code contributions which should be cited:

- Type Label Framework: https://doi.org/10.1021/acs.jpcb.3c08419

@Article{Gissinger24,
 author = {Jacob R. Gissinger, Ilia Nikiforov, Yaser Afshar, Brendon Waters, Moon-ki Choi, Daniel S. Karls, Alexander Stukowski, Wonpil Im, Hendrik Heinz, Axel Kohlmeyer, and Ellad B. Tadmor},
 title = {Type Label Framework for Bonded Force Fields in LAMMPS},
 journal = {J. Phys. Chem. B},
 year =    2024,
 volume =  128,
 number =  13,
 pages =   {3282–-3297}
}

CITE-CITE-CITE-CITE-CITE-CITE-CITE-CITE-CITE-CITE-CITE-CITE-CITE

Switching to 'neigh_modify every 1 delay 0 check yes' setting during minimization
Generated 0 of 3 mixed pair_coeff terms from geometric mixing rule
Neighbor list info ...
  update: every = 1 steps, delay = 0 steps, check = yes
  max neighbors/atom: 2000, page size: 100000
  master list distance cutoff = 2.8
  ghost atom cutoff = 2.8
  binsize = 1.4, bins = 17 15 1
  1 neighbor lists, perpetual/occasional/extra = 1 0 0
  (1) pair lj/cut, perpetual
      attributes: half, newton on
      pair build: half/bin/atomonly/newton
      stencil: half/bin/2d
      bin: standard
Per MPI rank memory allocation (min/avg/max) = 4.051 | 4.051 | 4.051 Mbytes
   Step          Temp          E_pair         E_mol          TotEng         Press          Volume    
         0   0             -3.0336755      0             -3.0336755     -1.5977026      444.53335    
        18   0             -3.0535948      0             -3.0535948     -0.57268905     431.70531    
Loop time of 0.0024175 on 1 procs for 18 steps with 420 atoms

92.5% CPU use with 1 MPI tasks x no OpenMP threads

Minimization stats:
  Stopping criterion = energy tolerance
  Energy initial, next-to-last, final = 
     -3.03367547919515  -3.05359207891274  -3.05359479991382
  Force two-norm initial, final = 9.5360666 0.36608002
  Force max component initial, final = 1.4687744 0.043876235
  Final line search alpha, max atom move = 1 0.043876235
  Iterations, force evaluations = 18 36

MPI task timing breakdown:
Section |  min time  |  avg time  |  max time  |%varavg| %total
---------------------------------------------------------------
Pair    | 0.0020842  | 0.0020842  | 0.0020842  |   0.0 | 86.21
Neigh   | 8.8583e-05 | 8.8583e-05 | 8.8583e-05 |   0.0 |  3.66
Comm    | 1.742e-05  | 1.742e-05  | 1.742e-05  |   0.0 |  0.72
Output  | 0          | 0          | 0          |   0.0 |  0.00
Modify  | 0          | 0          | 0          |   0.0 |  0.00
Other   |            | 0.0002273  |            |       |  9.40

Nlocal:            420 ave         420 max         420 min
Histogram: 1 0 0 0 0 0 0 0 0 0
Nghost:             95 ave          95 max          95 min
Histogram: 1 0 0 0 0 0 0 0 0 0
Neighs:           3580 ave        3580 max        3580 min
Histogram: 1 0 0 0 0 0 0 0 0 0

Total # of neighbors = 3580
Ave neighs/atom = 8.5238095
Neighbor list builds = 2
Dangerous builds = 0
reset_timestep  0

# define groups

region          1 block INF INF INF 1.25 INF INF
group           lower region 1
60 atoms in group lower
group           mobile subtract all lower
360 atoms in group mobile
set             group lower type 2
Setting atom values ...
  60 settings made for type

timestep        0.05

# group of NEB atoms - either block or single atom ID 412

region          surround block 10 18 17 20 0 0 units box
group           nebatoms region surround
21 atoms in group nebatoms
#group          nebatoms id 412
set             group nebatoms type 3
Setting atom values ...
  21 settings made for type
group           nonneb subtract all nebatoms
399 atoms in group nonneb

fix             1 lower setforce 0.0 0.0 0.0
fix             2 nebatoms neb 1.0 parallel ideal
fix             3 all enforce2d

thermo          100

dump            1 nebatoms atom 10 dump.neb.$u
dump            1 nebatoms atom 10 dump.neb.2
dump            2 nonneb atom 10 dump.nonneb.$u
dump            2 nonneb atom 10 dump.nonneb.2

# run NEB for 2000 steps or to force tolerance

min_style       quickmin

neb             0.0 0.1 1000 1000 100 final final.hop1
Switching to 'neigh_modify every 1 delay 0 check yes' setting during minimization
Generated 0 of 3 mixed pair_coeff terms from geometric mixing rule
Per MPI rank memory allocation (min/avg/max) = 2.926 | 2.926 | 2.926 Mbytes
   Step          Temp          E_pair         E_mol          TotEng         Press          Volume    
         0   0             -2.6242605      0             -2.6242605      2.0330749      442.83723    
        87   1.9843106e-07 -3.0473127      0             -3.0473125     -0.55053474     449.03426    
Loop time of 0.00762196 on 1 procs for 87 steps with 420 atoms

94.5% CPU use with 1 MPI tasks x no OpenMP threads

Minimization stats:
  Stopping criterion = force tolerance
  Energy initial, next-to-last, final = 
     -2.62426052000021  -3.04731287836506  -3.04731272795818
  Force two-norm initial, final = 4327.2753 0.090025657
  Force max component initial, final = 2746.3378 0.016984004
  Final line search alpha, max atom move = 0 0
  Iterations, force evaluations = 87 87

MPI task timing breakdown:
Section |  min time  |  avg time  |  max time  |%varavg| %total
---------------------------------------------------------------
Pair    | 0.0043928  | 0.0043928  | 0.0043928  |   0.0 | 57.63
Neigh   | 0.00010558 | 0.00010558 | 0.00010558 |   0.0 |  1.39
Comm    | 2.75e-05   | 2.75e-05   | 2.75e-05   |   0.0 |  0.36
Output  | 0.0014897  | 0.0014897  | 0.0014897  |   0.0 | 19.54
Modify  | 0.00076521 | 0.00076521 | 0.00076521 |   0.0 | 10.04
Other   |            | 0.0008412  |            |       | 11.04

Nlocal:            420 ave         420 max         420 min
Histogram: 1 0 0 0 0 0 0 0 0 0
Nghost:             95 ave          95 max          95 min
Histogram: 1 0 0 0 0 0 0 0 0 0
Neighs:           3579 ave        3579 max        3579 min
Histogram: 1 0 0 0 0 0 0 0 0 0

Total # of neighbors = 3579
Ave neighs/atom = 8.5214286
Neighbor list builds = 2
Dangerous builds = 0
Switching to 'neigh_modify every 1 delay 0 check yes' setting during minimization
Per MPI rank memory allocation (min/avg/max) = 4.942 | 4.942 | 4.942 Mbytes
   Step          Temp          E_pair         E_mol          TotEng         Press          Volume    
        87   0             -3.0473127      0             -3.0473127     -0.54950598     449.87507    
       100   4.8511472e-07 -3.0473202      0             -3.0473197     -0.5501557      449.87507    
       124   9.2863527e-08 -3.0473329      0             -3.0473328     -0.55101447     449.87507    
Loop time of 0.00608913 on 1 procs for 37 steps with 420 atoms

93.0% CPU use with 1 MPI tasks x no OpenMP threads

Minimization stats:
  Stopping criterion = force tolerance
  Energy initial, next-to-last, final = 
     -3.04731272795818  -3.04733251542669  -3.04733287552874
  Force two-norm initial, final = 0.090350071 0.067562576
  Force max component initial, final = 0.015780414 0.013624494
  Final line search alpha, max atom move = 0 0
  Iterations, force evaluations = 37 37

MPI task timing breakdown:
Section |  min time  |  avg time  |  max time  |%varavg| %total
---------------------------------------------------------------
Pair    | 0.002105   | 0.002105   | 0.002105   |   0.0 | 34.57
Neigh   | 0          | 0          | 0          |   0.0 |  0.00
Comm    | 1.1336e-05 | 1.1336e-05 | 1.1336e-05 |   0.0 |  0.19
Output  | 0.00081725 | 0.00081725 | 0.00081725 |   0.0 | 13.42
Modify  | 0.001776   | 0.001776   | 0.001776   |   0.0 | 29.17
Other   |            | 0.00138    |            |       | 22.66

Nlocal:            420 ave         420 max         420 min
Histogram: 1 0 0 0 0 0 0 0 0 0
Nghost:             95 ave          95 max          95 min
Histogram: 1 0 0 0 0 0 0 0 0 0
Neighs:           3579 ave        3579 max        3579 min
Histogram: 1 0 0 0 0 0 0 0 0 0

Total # of neighbors = 3579
Ave neighs/atom = 8.5214286
Neighbor list builds = 0
Dangerous builds = 0
Total wall time: 0:00:00
