LAMMPS (29 Aug 2024)
Processor partition = 1
Lattice spacing in x,y,z = 1.1326962 1.9618873 1.1326962
Reading data file ...
  orthogonal box = (0 -0.0019618873 -0.28317404) to (22.653923 19.620835 0.28317404)
  1 by 1 by 1 MPI processor grid
  reading atoms ...
  420 atoms
  reading velocities ...
  420 velocities
  read_data CPU = 0.005 seconds

CITE-CITE-CITE-CITE-CITE-CITE-CITE-CITE-CITE-CITE-CITE-CITE-CITE

Your simulation uses code contributions which should be cited:
- Type Label Framework: https://doi.org/10.1021/acs.jpcb.3c08419
The log file lists these citations in BibTeX format.

CITE-CITE-CITE-CITE-CITE-CITE-CITE-CITE-CITE-CITE-CITE-CITE-CITE

Switching to 'neigh_modify every 1 delay 0 check yes' setting during minimization
Generated 0 of 3 mixed pair_coeff terms from geometric mixing rule
Neighbor list info ...
  update: every = 1 steps, delay = 0 steps, check = yes
  max neighbors/atom: 2000, page size: 100000
  master list distance cutoff = 2.8
  ghost atom cutoff = 2.8
  binsize = 1.4, bins = 17 15 1
  1 neighbor lists, perpetual/occasional/extra = 1 0 0
  (1) pair lj/cut, perpetual
      attributes: half, newton on
      pair build: half/bin/atomonly/newton
      stencil: half/bin/2d
      bin: standard
Setting up cg style minimization ...
  Unit style    : lj
  Current step  : 0
Per MPI rank memory allocation (min/avg/max) = 4.051 | 4.051 | 4.051 Mbytes
   Step          Temp          E_pair         E_mol          TotEng         Press          Volume    
         0   0             -3.0336755      0             -3.0336755     -1.5977026      444.53335    
        18   0             -3.0535948      0             -3.0535948     -0.57268905     431.70531    
Loop time of 0.0024175 on 1 procs for 18 steps with 420 atoms

92.5% CPU use with 1 MPI tasks x no OpenMP threads

Minimization stats:
  Stopping criterion = energy tolerance
  Energy initial, next-to-last, final = 
     -3.03367547919515  -3.05359207891274  -3.05359479991382
  Force two-norm initial, final = 9.5360666 0.36608002
  Force max component initial, final = 1.4687744 0.043876235
  Final line search alpha, max atom move = 1 0.043876235
  Iterations, force evaluations = 18 36

MPI task timing breakdown:
Section |  min time  |  avg time  |  max time  |%varavg| %total
---------------------------------------------------------------
Pair    | 0.0020842  | 0.0020842  | 0.0020842  |   0.0 | 86.21
Neigh   | 8.8583e-05 | 8.8583e-05 | 8.8583e-05 |   0.0 |  3.66
Comm    | 1.742e-05  | 1.742e-05  | 1.742e-05  |   0.0 |  0.72
Output  | 0          | 0          | 0          |   0.0 |  0.00
Modify  | 0          | 0          | 0          |   0.0 |  0.00
Other   |            | 0.0002273  |            |       |  9.40

Nlocal:            420 ave         420 max         420 min
Histogram: 1 0 0 0 0 0 0 0 0 0
Nghost:             95 ave          95 max          95 min
Histogram: 1 0 0 0 0 0 0 0 0 0
Neighs:           3580 ave        3580 max        3580 min
Histogram: 1 0 0 0 0 0 0 0 0 0

Total # of neighbors = 3580
Ave neighs/atom = 8.5238095
Neighbor list builds = 2
Dangerous builds = 0
60 atoms in group lower
360 atoms in group mobile
Setting atom values ...
  60 settings made for type
21 atoms in group nebatoms
Setting atom values ...
  21 settings made for type
399 atoms in group nonneb
Switching to 'neigh_modify every 1 delay 0 check yes' setting during minimization
Generated 0 of 3 mixed pair_coeff terms from geometric mixing rule
Setting up quickmin style minimization ...
  Unit style    : lj
  Current step  : 0
Per MPI rank memory allocation (min/avg/max) = 2.926 | 2.926 | 2.926 Mbytes
   Step          Temp          E_pair         E_mol          TotEng         Press          Volume    
         0   0             -2.6242605      0             -2.6242605      2.0330749      442.83723    
        87   1.9843106e-07 -3.0473127      0             -3.0473125     -0.55053474     449.03426    
Loop time of 0.00762196 on 1 procs for 87 steps with 420 atoms

94.5% CPU use with 1 MPI tasks x no OpenMP threads

Minimization stats:
  Stopping criterion = force tolerance
  Energy initial, next-to-last, final = 
     -2.62426052000021  -3.04731287836506  -3.04731272795818
  Force two-norm initial, final = 4327.2753 0.090025657
  Force max component initial, final = 2746.3378 0.016984004
  Final line search alpha, max atom move = 0 0
  Iterations, force evaluations = 87 87

MPI task timing breakdown:
Section |  min time  |  avg time  |  max time  |%varavg| %total
---------------------------------------------------------------
Pair    | 0.0043928  | 0.0043928  | 0.0043928  |   0.0 | 57.63
Neigh   | 0.00010558 | 0.00010558 | 0.00010558 |   0.0 |  1.39
Comm    | 2.75e-05   | 2.75e-05   | 2.75e-05   |   0.0 |  0.36
Output  | 0.0014897  | 0.0014897  | 0.0014897  |   0.0 | 19.54
Modify  | 0.00076521 | 0.00076521 | 0.00076521 |   0.0 | 10.04
Other   |            | 0.0008412  |            |       | 11.04

Nlocal:            420 ave         420 max         420 min
Histogram: 1 0 0 0 0 0 0 0 0 0
Nghost:             95 ave          95 max          95 min
Histogram: 1 0 0 0 0 0 0 0 0 0
Neighs:           3579 ave        3579 max        3579 min
Histogram: 1 0 0 0 0 0 0 0 0 0

Total # of neighbors = 3579
Ave neighs/atom = 8.5214286
Neighbor list builds = 2
Dangerous builds = 0
Switching to 'neigh_modify every 1 delay 0 check yes' setting during minimization
Setting up quickmin style minimization ...
  Unit style    : lj
  Current step  : 87
Per MPI rank memory allocation (min/avg/max) = 4.942 | 4.942 | 4.942 Mbytes
   Step          Temp          E_pair         E_mol          TotEng         Press          Volume    
        87   0             -3.0473127      0             -3.0473127     -0.54950598     449.87507    
       100   4.8511472e-07 -3.0473202      0             -3.0473197     -0.5501557      449.87507    
       124   9.2863527e-08 -3.0473329      0             -3.0473328     -0.55101447     449.87507    
Loop time of 0.00608913 on 1 procs for 37 steps with 420 atoms

93.0% CPU use with 1 MPI tasks x no OpenMP threads

Minimization stats:
  Stopping criterion = force tolerance
  Energy initial, next-to-last, final = 
     -3.04731272795818  -3.04733251542669  -3.04733287552874
  Force two-norm initial, final = 0.090350071 0.067562576
  Force max component initial, final = 0.015780414 0.013624494
  Final line search alpha, max atom move = 0 0
  Iterations, force evaluations = 37 37

MPI task timing breakdown:
Section |  min time  |  avg time  |  max time  |%varavg| %total
---------------------------------------------------------------
Pair    | 0.002105   | 0.002105   | 0.002105   |   0.0 | 34.57
Neigh   | 0          | 0          | 0          |   0.0 |  0.00
Comm    | 1.1336e-05 | 1.1336e-05 | 1.1336e-05 |   0.0 |  0.19
Output  | 0.00081725 | 0.00081725 | 0.00081725 |   0.0 | 13.42
Modify  | 0.001776   | 0.001776   | 0.001776   |   0.0 | 29.17
Other   |            | 0.00138    |            |       | 22.66

Nlocal:            420 ave         420 max         420 min
Histogram: 1 0 0 0 0 0 0 0 0 0
Nghost:             95 ave          95 max          95 min
Histogram: 1 0 0 0 0 0 0 0 0 0
Neighs:           3579 ave        3579 max        3579 min
Histogram: 1 0 0 0 0 0 0 0 0 0

Total # of neighbors = 3579
Ave neighs/atom = 8.5214286
Neighbor list builds = 0
Dangerous builds = 0
Total wall time: 0:00:00
