LAMMPS (29 Aug 2024)
Processor partition = 3
Lattice spacing in x,y,z = 1.1326962 1.9618873 1.1326962
Reading data file ...
  orthogonal box = (0 -0.0019618873 -0.28317404) to (22.653923 19.620835 0.28317404)
  1 by 1 by 1 MPI processor grid
  reading atoms ...
  420 atoms
  reading velocities ...
  420 velocities
  read_data CPU = 0.006 seconds

CITE-CITE-CITE-CITE-CITE-CITE-CITE-CITE-CITE-CITE-CITE-CITE-CITE

Your simulation uses code contributions which should be cited:
- Type Label Framework: https://doi.org/10.1021/acs.jpcb.3c08419
The log file lists these citations in BibTeX format.

CITE-CITE-CITE-CITE-CITE-CITE-CITE-CITE-CITE-CITE-CITE-CITE-CITE

Switching to 'neigh_modify every 1 delay 0 check yes' setting during minimization
Generated 0 of 3 mixed pair_coeff terms from geometric mixing rule
Neighbor list info ...
  update: every = 1 steps, delay = 0 steps, check = yes
  max neighbors/atom: 2000, page size: 100000
  master list distance cutoff = 2.8
  ghost atom cutoff = 2.8
  binsize = 1.4, bins = 17 15 1
  1 neighbor lists, perpetual/occasional/extra = 1 0 0
  (1) pair lj/cut, perpetual
      attributes: half, newton on
      pair build: half/bin/atomonly/newton
      stencil: half/bin/2d
      bin: standard
Setting up cg style minimization ...
  Unit style    : lj
  Current step  : 0
Per MPI rank memory allocation (min/avg/max) = 4.051 | 4.051 | 4.051 Mbytes
   Step          Temp          E_pair         E_mol          TotEng         Press          Volume    
         0   0             -3.0336755      0             -3.0336755     -1.5977026      444.53335    
        18   0             -3.0535948      0             -3.0535948     -0.57268905     431.70531    
Loop time of 0.00310837 on 1 procs for 18 steps with 420 atoms

96.4% CPU use with 1 MPI tasks x no OpenMP threads

Minimization stats:
  Stopping criterion = energy tolerance
  Energy initial, next-to-last, final = 
     -3.03367547919515  -3.05359207891274  -3.05359479991382
  Force two-norm initial, final = 9.5360666 0.36608002
  Force max component initial, final = 1.4687744 0.043876235
  Final line search alpha, max atom move = 1 0.043876235
  Iterations, force evaluations = 18 36

MPI task timing breakdown:
Section |  min time  |  avg time  |  max time  |%varavg| %total
---------------------------------------------------------------
Pair    | 0.0025664  | 0.0025664  | 0.0025664  |   0.0 | 82.56
Neigh   | 0.00016954 | 0.00016954 | 0.00016954 |   0.0 |  5.45
Comm    | 6.2377e-05 | 6.2377e-05 | 6.2377e-05 |   0.0 |  2.01
Output  | 0          | 0          | 0          |   0.0 |  0.00
Modify  | 0          | 0          | 0          |   0.0 |  0.00
Other   |            | 0.0003101  |            |       |  9.98

Nlocal:            420 ave         420 max         420 min
Histogram: 1 0 0 0 0 0 0 0 0 0
Nghost:             95 ave          95 max          95 min
Histogram: 1 0 0 0 0 0 0 0 0 0
Neighs:           3580 ave        3580 max        3580 min
Histogram: 1 0 0 0 0 0 0 0 0 0

Total # of neighbors = 3580
Ave neighs/atom = 8.5238095
Neighbor list builds = 2
Dangerous builds = 0
60 atoms in group lower
360 atoms in group mobile
Setting atom values ...
  60 settings made for type
21 atoms in group nebatoms
Setting atom values ...
  21 settings made for type
399 atoms in group nonneb
Switching to 'neigh_modify every 1 delay 0 check yes' setting during minimization
Generated 0 of 3 mixed pair_coeff terms from geometric mixing rule
Setting up quickmin style minimization ...
  Unit style    : lj
  Current step  : 0
Per MPI rank memory allocation (min/avg/max) = 2.926 | 2.926 | 2.926 Mbytes
   Step          Temp          E_pair         E_mol          TotEng         Press          Volume    
         0   0             -3.0474969      0             -3.0474969     -0.54177294     459.48446    
        87   1.7402434e-07 -3.048775       0             -3.0487748     -0.53807633     456.79712    
Loop time of 0.00762158 on 1 procs for 87 steps with 420 atoms

95.1% CPU use with 1 MPI tasks x no OpenMP threads

Minimization stats:
  Stopping criterion = force tolerance
  Energy initial, next-to-last, final = 
     -3.04749686790076  -3.04877492936025  -3.04877500785655
  Force two-norm initial, final = 5.0075576 0.083508799
  Force max component initial, final = 3.8439117 0.038516532
  Final line search alpha, max atom move = 0 0
  Iterations, force evaluations = 87 87

MPI task timing breakdown:
Section |  min time  |  avg time  |  max time  |%varavg| %total
---------------------------------------------------------------
Pair    | 0.004377   | 0.004377   | 0.004377   |   0.0 | 57.43
Neigh   | 6.3625e-05 | 6.3625e-05 | 6.3625e-05 |   0.0 |  0.83
Comm    | 2.6336e-05 | 2.6336e-05 | 2.6336e-05 |   0.0 |  0.35
Output  | 0.0014839  | 0.0014839  | 0.0014839  |   0.0 | 19.47
Modify  | 0.0007655  | 0.0007655  | 0.0007655  |   0.0 | 10.04
Other   |            | 0.0009052  |            |       | 11.88

Nlocal:            420 ave         420 max         420 min
Histogram: 1 0 0 0 0 0 0 0 0 0
Nghost:             95 ave          95 max          95 min
Histogram: 1 0 0 0 0 0 0 0 0 0
Neighs:           3575 ave        3575 max        3575 min
Histogram: 1 0 0 0 0 0 0 0 0 0

Total # of neighbors = 3575
Ave neighs/atom = 8.5119048
Neighbor list builds = 1
Dangerous builds = 0
Switching to 'neigh_modify every 1 delay 0 check yes' setting during minimization
Setting up quickmin style minimization ...
  Unit style    : lj
  Current step  : 87
Per MPI rank memory allocation (min/avg/max) = 4.942 | 4.942 | 4.942 Mbytes
   Step          Temp          E_pair         E_mol          TotEng         Press          Volume    
        87   0             -3.048775       0             -3.048775      -0.53857951     456.37048    
       100   2.9386527e-07 -3.0487761      0             -3.0487759     -0.53797866     456.37048    
       124   3.466671e-08  -3.048777       0             -3.048777      -0.53724757     456.37048    
Loop time of 0.00608717 on 1 procs for 37 steps with 420 atoms

95.2% CPU use with 1 MPI tasks x no OpenMP threads

Minimization stats:
  Stopping criterion = force tolerance
  Energy initial, next-to-last, final = 
     -3.04877500785655  -3.04877701428229  -3.04877703060038
  Force two-norm initial, final = 0.083508799 0.041226257
  Force max component initial, final = 0.038516532 0.011737467
  Final line search alpha, max atom move = 0 0
  Iterations, force evaluations = 37 37

MPI task timing breakdown:
Section |  min time  |  avg time  |  max time  |%varavg| %total
---------------------------------------------------------------
Pair    | 0.0021013  | 0.0021013  | 0.0021013  |   0.0 | 34.52
Neigh   | 0          | 0          | 0          |   0.0 |  0.00
Comm    | 1.3833e-05 | 1.3833e-05 | 1.3833e-05 |   0.0 |  0.23
Output  | 0.00089488 | 0.00089488 | 0.00089488 |   0.0 | 14.70
Modify  | 0.0017362  | 0.0017362  | 0.0017362  |   0.0 | 28.52
Other   |            | 0.001341   |            |       | 22.03

Nlocal:            420 ave         420 max         420 min
Histogram: 1 0 0 0 0 0 0 0 0 0
Nghost:             95 ave          95 max          95 min
Histogram: 1 0 0 0 0 0 0 0 0 0
Neighs:           3575 ave        3575 max        3575 min
Histogram: 1 0 0 0 0 0 0 0 0 0

Total # of neighbors = 3575
Ave neighs/atom = 8.5119048
Neighbor list builds = 0
Dangerous builds = 0
Total wall time: 0:00:00
