ITEM: TIMESTEP
0
ITEM: NUMBER OF ATOMS
96
ITEM: BOX BOUNDS xy xz yz pp pp pp
-1.9502768608408696e+00 1.1339214512371766e+01 0.0000000000000000e+00
0.0000000000000000e+00 1.1464909705241407e+01 -1.9502768608408696e+00
0.0000000000000000e+00 1.1581352099068955e+01 0.0000000000000000e+00
ITEM: ATOMS id type x y z fx fy fz
   1 1    3.777313470000000616977331447    3.408539530000000539189386473    1.177186220000000060892375586    2.859867650064414235089316207   -3.803657448885549019479412891    0.435856675694733519677015465
   2 1    1.258177700000000065472249844    0.786030950000000117050547033    0.813910669999999947243907172   -2.248389407884865853759492893    0.375577547947225864888309843    3.357608001607066405824753019
   3 1    0.982587160000000126025554437    3.024085729999999916373099040    4.198175220000000429365627497   -2.319564876167896638747834004   -1.594650184573411788591101867   -2.679594259079816964685960556
   4 1    3.152002279999999601045601594    5.279791140000000382315192837    4.838792080000000161987827596    2.913026864910346347414815682    3.098018482165238118852812477    0.363485066400176581868919357
   5 2    3.648175689999999971036004354    1.683335880000000006617710824    0.039725800000000005551825666   -3.086870407820781814223209949    2.500848249226322206340000776    0.356188599591345245176654544
   6 2    2.060489489999999701552724218    4.722040129999999891197148827    3.150515710000000968449285210    3.693170707021200094288815308    0.634289075230173859942794934   -0.969643728497138868149818336
   7 2    1.342705870000000079045321399    4.602942089999999986105194694    6.580578209999999650392510375    1.096688612036672783034418899   -3.125191716859015755858308694   -2.569069164252280934590544348
   8 2    1.691838019999999609410679113    0.781513410000000185995361335    2.894278939999999966659061101    2.742712914186437256347517177    2.135972384342516683375379216   -2.028151573547351205206723535
   9 2    5.061004399999999847636900085    4.186326870000000255345184996    3.753815209999999957801719574   -0.596526453365607500778367012   -1.789241001998330471423059862   -0.404691716245963006848285204
  10 2   -0.353363940000000431584936678    1.074352020000000296207076644    4.843496720000000088646174845   -1.043925123535620613779428822   -0.265605663468656771897258295    1.625627739660865822557411775
  11 2   -0.344910560000000310232337597    1.303016350000000045383785618    2.257744199999999867856104174    1.122241635383349089849502889    3.508449486716635590255464194   -1.330457291724431945212359096
  12 2    6.002036740000000314410044666    3.620616860000001047126261255    0.718635189999999979271194661   -2.589132730361279666198015548    2.284068751998837853989243740   -0.405321708873143338180966566
  13 1    2.826825359999999509597046199    3.148854510000000495040239912    7.181260619999999761375875096    0.137401018667359070546396538   -0.895018500212975798291381579    2.727986238176188127368959613
  14 1    0.570660709999999404828940897   11.010801375241406674376776209    7.071726080000000358438683179   -1.608765873703342563771911955    0.508986722129291968563791215   -2.287470049497973167973441377
  15 1   -0.664199030000001355844574391    2.325973390000000140531710713    9.297243090000000265149537881    6.686174087748966599065170158   -1.233146010495524746986006903    1.985979527051500381773507797
  16 1    1.679440859999999924312419353    5.233465910000000498314420838   10.402241610000000804348019301   -1.293880747963149113743952512   -2.419515371226831135231805092   -4.303695950002953019009055424
  17 2    2.421161559999999823844518687    1.150314550000000268781263912    6.796885060000000144952991832   -1.560312216544689656316791115   -0.941007703940261563957392354    0.042887480694791840774016123
  18 2    0.539898560000000138359155244    4.399165060000000515572082804    8.695880320000000551772245672    2.142761764102167898471407170   -1.379617331240365896150024128    0.688653179078124511036662625
  19 2   -0.376154630000001821699129323    4.376561470000000397817530029   10.554312950000001691819306870    3.500229587061778335765893644   -0.395777167931871010075894901    2.320674478031493848106947553
  20 2    1.371191109999998936075371603    2.071803759999999883234522713    8.635368610000000444415491074   -0.776424639154011497765850436   -1.895711161713682368912259335    0.194102754643305785986484580
  21 2    3.119837459999999396131897811    4.111135410000001044750206347    9.430659159999999374690560217   -0.088165265021360780806070068   -1.704498214994610405526032082   -0.530347437157221768266879280
  22 2    8.746779792371764727931804373    0.932129919999999945190438666   11.168385839999999120664142538    5.068242168682474790841752110    1.865776340607957717310227963   -0.382819828783828697282842768
  23 2   10.139479122371765740240334708    1.659264990000000050685002861    7.123430630000000540746896149   -1.577224938207587801031195340    1.657720650333129874809401372    4.153223392979296768601216172
  24 2    4.729799549999999186411514529    4.176349499999999714816567575    6.584973290000000645250111120   -3.982224673355326149959410031    2.266852136587259813893524552   -0.493777962495275835053121227
  25 1    3.569124359999999995807229425    8.875597799999999537590156251    1.966281029999999985236058819    2.627021730059286852565492154    1.810859533890766481789569298    1.008248048173848721020817720
  26 1    1.729636160000000089098648459    6.076722479999999926292275632    1.388334870000000220713332055   -5.341163438683578235099957965    0.983329025927906719140025871    0.036277967037883218637261962
  27 1    0.106738289999999791390905557    8.695734050000000436853042629    3.939286210000000121311813928    1.175467064637142122762725194   -1.693372358590537807288001204   -2.804322288925169992523933615
  28 1    3.827464550000000187424120668   11.135853640000000552845449420    4.533334049999999670887973480   -1.550750042059046762688012677    1.254122319589963563402079672    1.344164145641123297991725849
  29 2    2.615661970000000113856231110    7.796204369999999883589225647    0.263678689999999993354151684   -0.361741316336191887081952245   -1.147674200447169834404803623    1.189882824918987225260025298
  30 2    1.598625139999999777984385219    9.904298150000000688919499225    3.286540930000000582111852054    1.133271932591067621132197019   -4.562699032678700916676461929   -2.652035117578785516911921150
  31 2    1.639236539999998854000295978   10.870627139999999855035639484    5.226770110000000357786120730    0.921284474313502910192141826   -0.550814573066990553762423133    2.609846296286101541284097038
  32 2    2.952627140000000149910874825    7.238420470000000328525402438    4.397249869999999560832293355   -0.053191653004427866258119195   -1.166851182231608108352816089   -3.960926172127860134253296565
  33 2    4.849927189999999832537014299    9.472559820000000740947143640    3.563173540000000638627852823   -3.247961379157523698069098828    2.583801053706220152150763170    3.465130820239039177721451779
  34 2    0.469171339999999936765107122    6.699262359999999638660028722    4.834873250000001121406967286   -2.131160684670890148595390201    3.190064604236884537868945699    1.520296468632596154080260931
  35 2    0.056160859999999812597337723    7.579166129999999945709987514    2.079412370000000009895302355    0.836765091228069746165374454    1.336749399421581774305423096    2.225449721522768875558995205
  36 2    4.799565199999999087765445438   10.240230309999999391834535345    1.091078500000000062186700234   -1.246556425578643878537832279   -1.743527787247629134981252719   -1.129924809884464309561735718
  37 1    3.148649269999999944502633298    8.997328810000000842705958348    7.375764440000001087582859327    2.424061599983878156905348078   -1.545318546738058351763811515   -0.315972251141698468046570270
  38 1    0.611057799999999762263769298    6.410627190000000474867647426    7.018956770000000844333953864   -0.775747964080277352394432455   -1.380277619235308561584929521   -1.470285176486288758468390370
  39 1   -0.263420160000001013500536828    7.905700360000000870286385179    9.730045040000000255986378761   -2.485907597812833103034790838    2.391387704753997756057515289    2.233822435365738545698377493
  40 1    2.410738550000000035566927181    0.092571074758595425779894583    9.353271290000000348641151504    0.433832593993861925785182621   -0.685175421488089630983608913    2.464859158027845609240102931
  41 2    2.774290779999999845273350729    6.700706979999999646224750904    6.388679009999999713897977927    0.579844922411462682099170252    0.743830668781169324077495730    4.512758500589358234833525785
  42 2    1.435637539999999212625425571    9.246756369999999947140167933    8.386766529999999164601831581   -0.487585834860133959800521097    1.690730875403381627819499045   -0.916672632890511707159930666
  43 2    1.320872209999998769802687093   10.507156560000000311561052513   10.735794809999999799288161739    0.382256355462090469110592039    1.454061946331705712509574369   -2.179888737715264479533061603
  44 2    0.889218929999999962987544677    6.554459460000000348145476892    9.043661970000000493996594741    0.984433030727822400152149385    1.548371744691235729618483674    1.098272381842474221258498801
  45 2    4.188472250000000229874785873    9.539318310000000522563823324    9.301222020000000867412381922   -1.032599953941840675852859022   -1.798646250886362984999777836    1.555131766009029803399243974
  46 2    9.399679292371764915969833964    6.925053339999999835185917618   10.210443330000000372592694475    1.214836955162168941058098426    0.157842212007298865472648686   -2.373915185947747197303669964
  47 2   -1.035296370000001076050466509    7.795554630000001594680725248    7.113964649999999778628989588   -0.234011240239468065738037694   -2.905943287861039614483615878    0.280930659884102651435711095
  48 2    4.180196890000000387033196603   10.583374220000001386665644532    7.403643029999999569668034383    0.595279815946536450255166528    4.424154368593526953645778121   -2.094840580194141210768066230
  49 1    9.597969269999996555498000816    3.526039879999999904214291746    1.999316700000000279757728094    1.065806002551928699517702626   -1.720182870388309526177295083    0.312117194862878921668425392
  50 1    7.122207129999999608571670251    0.473944020000000076908719393    1.195729240000000137555957735   -0.115407274348249183626435865    1.272438377514999219286551124    1.110440537661010473868827830
  51 1    6.471302199999999338331235776    2.669745489999999943364628052    3.843161419999999939278723105   -1.050646897444061256265968041    0.460627947220007216699855235    0.910235278370175260320706911
  52 1    8.793302320000000449340404884    5.269991790000000619897946308    5.585326280000000309655661113   -3.882166005822568433103469943    1.785852648513541529595727297   -2.086320198899286992855195422
  53 2    8.982729570000000052232280723    2.066570710000000143935494634    0.096735970000000018331753893   -2.012549099235606320235092426    1.257578247124726766870139727    3.334141590734146731733744673
  54 2    7.936507870000000686161456542    4.438898810000001304842953687    3.439683819999999947469859762    1.401972901892995837513922197   -2.949618676754862889310970786   -0.967975718192620515623048050
  55 2    6.740295579999999731057869212    4.685407660000000085176452558    6.159511219999999731555817561    4.390308400701352198325366771   -1.186412318590121861561215155   -1.877366737275327324141471763
  56 2    8.425682720000001069138306775    1.543226269999999900051079749    3.400978550000000044661874199   -0.199994306649592279434557440    2.777125835376310192259552423   -1.412207763689565132025904859
  57 2    0.090675167628234354388894189    4.480181479999999716312686360    3.059637570000000028613840186   -4.537257006682318127843700495   -4.303198259921777513170582097    0.681696744026377032810160017
  58 2    4.970534479999999533106347371    1.499045290000000196783958017    5.231841010000000125046426547    0.172909561720254956185272022   -2.627827046825021106712938490   -3.052797189152830270586491679
  59 2    5.674869790000000691065906722    2.005839009999999866806774662    1.722646670000000046485411076    1.421083814622841501318362134   -4.560253702527679031675234000    3.783086245871543074059673017
  60 2   10.874375889999999600377122988    5.765990580000000420568539994    0.807288569999999983117788815   -1.634581037540019821108217002   -1.848681104729757551652369330    0.292356987829993864025368566
  61 1    8.986938679999999735059645900    3.423431320000000610548340774    7.664317960000000873321823747   -2.853485473998493837655132666    0.789620476999769782544547070   -0.901502742979696014558044226
  62 1    6.412984619999998692208009743    0.295352520000000062783129806    7.542209360000000195611846721   -2.648235598661067058401386021    2.940689557673647591684584768   -0.537354684223520395747186740
  63 1    4.820220709999998298656009865    2.755025450000000653005827189   10.049966230000002553879312472    1.530533272590698157245014954   -0.858561205414964723203752328   -0.435698756858869717945026423
  64 1    7.549409759999998748014604644    5.478036900000000208876826946   10.286112179999999938218024909    2.892574114584973710151416526    1.879723107299556605909174323   -0.035012863510935354760533755
  65 2    7.551042610000000543379883311    1.357882280000000108088897832    5.786155100000000217619344767   -0.623835701922380247985699953   -0.454262922612678643474737328    3.093505833225147050313807995
  66 2    6.979791130000000620725586487    4.548694150000000213651674130    8.140275819999999384890543297    1.692382171033283144723213809   -0.643028308610417820290194868    4.027569778604322969783879671
  67 2    5.653127979999998942162164894    4.327432059999999580668372801   11.461649680000000728341547074    6.216482074705638183331757318   -0.034560924678390086972612494   -3.185020556584484907602927706
  68 2    6.489556059999999959586602927    2.102931040000000528777945874    9.232515460000000118157004181    0.620570498238680712255188610   -0.716870365376680918068075243   -3.355477733827599173821454315
  69 2    9.193712660000000980176082521    3.330786540000000961470050242    9.652387290000000064082996687   -3.865563401527909004329330855    1.276801883045447283393514226   -1.151395398096172417723437320
  70 2    5.210193310000000188608737517    0.283947539999999998272528501   10.137498170000000641266524326   -2.706321897587574465404713919    1.659145672073047750316732163    2.485373886265535237072299424
  71 2    4.338742929999999553558609477    2.127345500000000111384679258    7.966969540000000016277681425    0.295317716210278247146447939   -0.773076104281843257126638491    3.319027015443079875467446982
  72 2   -1.100801872371767853309165730    5.089226570000000116067440104    7.646553950000000376974185201   -3.029835668944388160639391572   -0.572517977858917781475156517   -4.721435402504671863255225617
  73 1    8.522944830000000138170435093    8.707984939999999340898284572    1.803582580000000046283048505    2.367758878477960848840666586    1.656914693127444548892412968   -0.772748460223026900628440217
  74 1    7.193994560000001925459400809    5.730693870000000522679783899    1.129780369999999978247728905   -1.666930423190990273596412408    0.178473036575742954878975866    2.228596798223736463739896863
  75 1    6.582358460000000022205313144    8.475350750000002264528120577    4.607985769999999980939264788   -3.156554490419693159708458552   -2.994442035819120828676886958   -1.814506112479870703069195770
  76 1    9.087501639999999270003172569   11.441967070000000461504896521    5.078979320000000186041688721   -0.478238055925886307306882372    2.023917776582803806917354450   -2.272456472502439428495790708
  77 2    8.008259020000000560912667424    7.376736209999999793751612742    0.229900309999999996612984887   -0.549771393207634573307984738   -5.398697184907903512396387669    3.251807878638272253368768361
  78 2    7.694055050000000228749286180   10.549102579999999562687662547    3.142359410000000075058324001   -1.422699292249118840913979511   -0.171035149955113929820527119   -5.135464675702772652243766061
  79 2    7.484093619999999447145455633   10.019971740000000792747414380    5.396857190000000414897840528    0.358301230451380126051930120   -0.921865429706865247005964648    4.354959676278070013211163314
  80 2    7.679539719999999292099346349    6.448313070000000202242063096    3.111300169999999809533619555    3.517409389182914125626666646    3.802362452456087282826047158   -3.451125739626607735743846206
  81 2    9.535652349999999444207787747    9.671081120000000197478584596    4.117976360000000113359419629    5.213470355574501446938029403   -1.526722545834106270490337920    0.500977292359462866855324137
  82 2    6.018923100000000303566594084    6.209083989999999886322257225    4.769926759999999710259999119   -1.878652563171348433002094680    0.750538561907242884885249623    0.856489266083588329792064542
  83 2    5.519299159999999204728737823    7.498952530000002170140760427    2.964211280000000225953726840   -1.852906723176023451316041246    0.803865019814197556691226509   -1.499836599980310491986301713
  84 2   10.281446090000001092334969144   10.208468039999999632527760696    0.685304710000000039116230255    1.308741964766011456333671958   -0.608028279066027299570862397    2.068111141551285392381487327
  85 1    8.312332530000000829772943689    8.319053280000000327731868310    7.319411940000000171835381479    1.020894704931074592479944840    2.019299251164174524575400937    2.188438077289776462208692465
  86 1    5.685721410000000197726421902    5.983999450000000663862920192    7.681291630000000481004462927    0.389663641291592810489419207   -1.245091397713892655829681644   -4.207614853738164129026699811
  87 1    5.386071330000000045856722863    8.202994150000002093747752951    9.989876329999999526876308664    1.455956231068897377411985872   -0.090107473260558956784649354   -0.633727560288746216698996250
  88 1    7.947613500000000108514086605   10.865222870000000199297574000   10.302266019999999357992237492    0.026421309165896467163747730   -1.692100367173406061382934240    2.950350486075220324266865646
  89 2    7.194837060000000228399130719    7.099989070000002122640125890    6.265497720000000825280039862    3.079369152896872741109746130    0.995904249075340142205448046   -2.212846488983953197049459050
  90 2    7.437355649999998874477569188    9.498681969999999807896529092    8.930878740000000703957994119   -1.584164955198016144777284353    0.665231481485488385096971342   -4.346251271130610049908682413
  91 2    6.768507539999999877977643337    9.213150340000002103124643327   11.261034029999999361848495028   -2.364380866443373196972288497    2.364495185645815844566186570    0.150634158896214731537810394
  92 2    7.303535909999999020669747551    6.985029840000001044586497301    8.499542959999999425235728268   -0.565715007968349281597397749   -0.211207855249700815480906613    4.122775163783082952306813240
  93 2   -1.614490972371769084148240836   10.386423410000002576225597295    9.594313500000000161094249052    1.360965419929180519886813272    0.505850398198689488182822060    1.637752354264313980891643041
  94 2    4.412743769999998733055690536    6.019739519999999899368958722   10.260645439999999339875103033   -0.844454667201032016521367041    3.269990811972114830297186927   -1.399909324300296020737732761
  95 2    5.081206339999999599399416184    8.395699570000001443759174435    7.046130070000000245045157499    0.097156677337572300290347016   -3.437893689554491150062176530    0.491219035622030841814478208
  96 2   -1.212538492371766363220331186    9.797703860000000375407580577    7.414354050000000917464149097    0.077210631717228750403592130    2.626868979358754518926843957   -2.199129821937360951267237397
