ITEM: TIMESTEP
0
ITEM: NUMBER OF ATOMS
256
ITEM: BOX BOUNDS pp pp pp
0.0000000000000000e+00 2.1105598636581512e+01
0.0000000000000000e+00 2.1105598636581512e+01
0.0000000000000000e+00 2.1105598636581512e+01
ITEM: ATOMS id type x y z fx fy fz vx vy vz
   1 1    1.319099999999999939248596093    1.319099999999999939248596093    1.319499999999999895194946475    0.000000000000002501471252359    0.000000000000002501037571490    0.000000000000031264270686227   -0.532916792299083286188476904   -1.174657577188751078622885871    0.176136026554174707214883711
   2 1    3.957299829572688665280111309    3.957299829572688665280111309    1.319499999999999895194946475   -0.000000000000000082399365109   -0.000000000000000077195194681    0.000000000000031249633956898    0.869100139046175890200629510   -1.057904958604000800193034593   -0.185589676139664983001154042
   3 1    3.957299829572688665280111309    1.319099999999999939248596093    3.957699829572696614832238993   -0.000000000000000111022302463    0.000000000000002450730590686    0.000000000000004417473331575   -1.933201125564304900805723264   -1.401696888654115680239442554    0.733744939064490897528969526
   4 1    1.319099999999999939248596093    3.957299829572688665280111309    3.957699829572696614832238993    0.000000000000002416469802036   -0.000000000000000074159428598    0.000000000000004417473331575    0.224868250650085449438009277    2.948852003173814129155516639   -0.581617153708130940614751125
   5 1    6.595499659145376725177811750    1.319099999999999939248596093    1.319499999999999895194946475   -0.000000000000002598941027665    0.000000000000002482477385549    0.000000000000031258253364169   -1.234473130668402029996855163   -1.424019056721160580991636380    1.882260117322251957716616744
   6 1    9.233699488718048797863957589    3.957299829572688665280111309    1.319499999999999895194946475    0.000000000000005607981527073   -0.000000000000000096277152917    0.000000000000031265788569268   -1.813713411350328597038128464    0.722941547334296386040364268    1.142542818495241974119380757
   7 1    9.233699488718048797863957589    1.319099999999999939248596093    3.957699829572696614832238993    0.000000000000005607663042684    0.000000000000002446827462865    0.000000000000004414220725057    1.456382225906217353639249268   -1.756325489381260096521941705   -1.376677568878760249404535898
   8 1    6.595499659145376725177811750    3.957299829572688665280111309    3.957699829572696614832238993   -0.000000000000002597477354732   -0.000000000000000101115405111    0.000000000000004379980265198    1.412151897828042290683470128    0.835224281425581138726954578    2.020929777218273049044228173
   9 1   11.871899318290756397686891432    1.319099999999999939248596093    1.319499999999999895194946475   -0.000000000000004505103972166    0.000000000000002484124017599    0.000000000000031262969643620    0.880131898128813983106510932    0.823066843976165696261659832    1.621868559060716030728599435
  10 1   14.510099147863435575800394872    3.957299829572688665280111309    1.319499999999999895194946475    0.000000000000000220526721884   -0.000000000000000081532003371    0.000000000000031251321246529   -4.817999288711783734129312506    2.717431010838533556039919858   -2.695429900034900683181149361
  11 1   14.510099147863435575800394872    1.319099999999999939248596093    3.957699829572696614832238993    0.000000000000000191063527846    0.000000000000002476873415570    0.000000000000004406631309850    0.427992384016971760818393022   -1.660457942821155219448314710    0.460015667051103360751795890
  12 1   11.871899318290756397686891432    3.957299829572688665280111309    3.957699829572696614832238993   -0.000000000000004480811067239   -0.000000000000000095409791179    0.000000000000004391344059218   -1.231227914544930523987886772   -0.756267583936253595666698857   -2.421978026030843444971196732
  13 1   17.148298977436116530270737712    1.319099999999999939248596093    1.319499999999999895194946475    0.000000000000006114032891080    0.000000000000002534973099488    0.000000000000031279449516641   -0.561415606529224398002497765   -0.774135761468376148997094788    3.267410955803419891907424244
  14 1   19.786498807008836564591547358    3.957299829572688665280111309    1.319499999999999895194946475   -0.000000000000007225990639181   -0.000000000000000103432887255    0.000000000000031249959217550    3.188483649317505275178064039    1.225643253398595255987402197    0.394925294845044794200816796
  15 1   19.786498807008836564591547358    1.319099999999999939248596093    3.957699829572696614832238993   -0.000000000000007243337873941    0.000000000000002448128505472    0.000000000000004379743095972   -1.490986044236279672858813683    0.276043450350121510883383280   -0.142877615189940326834161510
  16 1   17.148298977436116530270737712    3.957299829572688665280111309    3.957699829572696614832238993    0.000000000000006135825354747   -0.000000000000000130402416296    0.000000000000004344425210204   -1.909913552036085704344259284   -1.323497389424181047701267744    0.951878386478559934680276911
  17 1    1.319099999999999939248596093    6.595499659145376725177811750    1.319499999999999895194946475    0.000000000000002485858741075   -0.000000000000002597965245710    0.000000000000031256030749716    0.165698636300339097182643400   -0.465680270854974209804311158    1.483358244573803164101377661
  18 1    3.957299829572688665280111309    9.233699488718048797863957589    1.319499999999999895194946475   -0.000000000000000098879238131    0.000000000000005608252577616    0.000000000000031263945425575    0.641887272497283611905061207    0.215592101678558911714844726   -2.541542124656896994849830662
  19 1    3.957299829572688665280111309    6.595499659145376725177811750    3.957699829572696614832238993   -0.000000000000000100613961607   -0.000000000000002597152094080    0.000000000000004376490489455    1.889136530230225652360331878   -0.693633494547703843835506632   -1.531459833139787951594712467
  20 1    1.319099999999999939248596093    9.233699488718048797863957589    3.957699829572696614832238993    0.000000000000002426010781154    0.000000000000005624407189986    0.000000000000004415088086795    1.021869754745402758544514654    2.277373351603336537607447099    2.284756135420983103045955431
  21 1    6.595499659145376725177811750    6.595499659145376725177811750    1.319499999999999895194946475   -0.000000000000002616505102859   -0.000000000000002615054982454    0.000000000000031251585520808   -2.544734344745921639230346045   -0.993743104036365898501514948   -1.416083053914337641643328425
  22 1    9.233699488718048797863957589    9.233699488718048797863957589    1.319499999999999895194946475    0.000000000000005603211037514    0.000000000000005603482088057    0.000000000000031282268442290    0.234357786222763764261145525    0.108448223625574227679813077    0.241752262173242860043842484
  23 1    9.233699488718048797863957589    6.595499659145376725177811750    3.957699829572696614832238993    0.000000000000005606958311272   -0.000000000000002580997481710    0.000000000000004370981387166    0.361078144219826313587873301    0.065273844558918700520244727    0.825423827534973453268207777
  24 1    6.595499659145376725177811750    9.233699488718048797863957589    3.957699829572696614832238993   -0.000000000000002581160112036    0.000000000000005607703700266    0.000000000000004370114025428   -0.517034994917761503430142511    0.468794562035731665616822283   -4.082815597262878348772119352
  25 1   11.871899318290756397686891432    6.595499659145376725177811750    1.319499999999999895194946475   -0.000000000000004475728869555   -0.000000000000002614119858080    0.000000000000031258687045038    0.493263509295323754333395527    2.434587133534025227277197700   -2.049688413890451865739805726
  26 1   14.510099147863435575800394872    9.233699488718048797863957589    1.319499999999999895194946475    0.000000000000000229362969589    0.000000000000005602018415124    0.000000000000031269535843027    0.644608779269500886677235485    1.276179812096494226025811258   -0.388685505735722636178053335
  27 1   14.510099147863435575800394872    6.595499659145376725177811750    3.957699829572696614832238993    0.000000000000000182959116607   -0.000000000000002596040786854    0.000000000000004369246663690    0.946197885023773221924159316   -0.264270116566893531473425583   -0.519224060012537069752625030
  28 1   11.871899318290756397686891432    9.233699488718048797863957589    3.957699829572696614832238993   -0.000000000000004490677307008    0.000000000000005598257588838    0.000000000000004385380947269   -1.101952763480128716366834851   -0.258432471357821658131115328    1.515151088629943521013387908
  29 1   17.148298977436116530270737712    6.595499659145376725177811750    1.319499999999999895194946475    0.000000000000006107527678045   -0.000000000000002591568452892    0.000000000000031277064271862    0.820569053727430053335467619    1.994818242509451611255144599    2.701173341865463317645890129
  30 1   19.786498807008836564591547358    9.233699488718048797863957589    1.319499999999999895194946475   -0.000000000000007192922472921    0.000000000000005580388581783    0.000000000000031273594824910    0.577643822859743361064488454    1.057535464219740317659557149   -1.067399741204673180305917413
  31 1   19.786498807008836564591547358    6.595499659145376725177811750    3.957699829572696614832238993   -0.000000000000007229460086133   -0.000000000000002605120980048    0.000000000000004340711817763    0.182860940958398443534349553   -1.326026535399599914910595544   -1.171240002551666048447032153
  32 1   17.148298977436116530270737712    9.233699488718048797863957589    3.957699829572696614832238993    0.000000000000006115279723579    0.000000000000005577352815700    0.000000000000004335317911955    0.537722395781132678216351906    2.292855947812830308407683333   -2.131956196229412014986337454
  33 1    1.319099999999999939248596093    1.319099999999999939248596093    6.595899659145428195472504740    0.000000000000002546574062734    0.000000000000002543321456216   -0.000000000000012643532054657   -0.515999939317845823794073112   -0.692723656455525693687036437    2.893202838162781898034836559
  34 1    3.957299829572688665280111309    3.957299829572688665280111309    6.595899659145428195472504740   -0.000000000000000104950770297   -0.000000000000000096277152917   -0.000000000000012659036145724   -0.082426887271129525847079833    1.150981107510877121669068401   -0.729524391326154986181506956
  35 1    3.957299829572688665280111309    1.319099999999999939248596093    9.234099488718081616411836876   -0.000000000000000118828558104    0.000000000000002490195549765    0.000000000000019147660887397   -0.327654831460972240098072916    0.597211282662757136918685319    0.656646623684563612854958592
  36 1    1.319099999999999939248596093    3.957299829572688665280111309    9.234099488718081616411836876    0.000000000000002453332675900   -0.000000000000000080664641633    0.000000000000019146143004356    0.941828421267834614560854334    1.031898192221086363318249823    0.259090704327740839474358836
  37 1    6.595499659145376725177811750    1.319099999999999939248596093    6.595899659145428195472504740   -0.000000000000002571619132918    0.000000000000002527580195925   -0.000000000000012651385744144   -0.069894245237964752748283104   -1.474313022533367822930472357    3.047061476653007527914951424
  38 1    9.233699488718048797863957589    3.957299829572688665280111309    6.595899659145428195472504740    0.000000000000005576573545388   -0.000000000000000114491749414   -0.000000000000012682238072215   -0.949339214929131647302540387   -0.893457902179009777476892395   -1.865261192234759279884315220
  39 1    9.233699488718048797863957589    1.319099999999999939248596093    9.234099488718081616411836876    0.000000000000005558955260086    0.000000000000002482389294123    0.000000000000019147227206529    1.855072770985884078598360247    3.602855574146842876359642105   -0.652530016249629141178445479
  40 1    6.595499659145376725177811750    3.957299829572688665280111309    9.234099488718081616411836876   -0.000000000000002590863721480   -0.000000000000000108054299015    0.000000000000019099481653358    0.525571794573956085905308555    1.591121435215105739402474683   -2.353871810266406683354034612
  41 1   11.871899318290756397686891432    1.319099999999999939248596093    6.595899659145428195472504740   -0.000000000000004496579432585    0.000000000000002525757381022   -0.000000000000012709885227613   -1.780820281698824336658049106   -1.520725148817706928738857641   -2.039093560016095985076844954
  42 1   14.510099147863435575800394872    3.957299829572688665280111309    6.595899659145428195472504740    0.000000000000000194532974798   -0.000000000000000099746599869   -0.000000000000012686215738935    0.455485744076572607319519648   -1.056975866569997091204413664   -0.259949123797663828039361533
  43 1   14.510099147863435575800394872    1.319099999999999939248596093    9.234099488718081616411836876    0.000000000000000226272993398    0.000000000000002512435246828    0.000000000000019147227206529   -1.543936899498412618214615577   -2.255536601491228587690329732    3.904705910557978221220309933
  44 1   11.871899318290756397686891432    3.957299829572688665280111309    9.234099488718081616411836876   -0.000000000000004483453810034   -0.000000000000000110154940725    0.000000000000019113183258312    0.056880591066207540629218187   -0.142888350116261997335698197    0.845564156094696595111770421
  45 1   17.148298977436116530270737712    1.319099999999999939248596093    6.595899659145428195472504740    0.000000000000006144390551910    0.000000000000002578558026822   -0.000000000000012646676240957   -0.108651626361938855036548546    2.795343854678350226095062681   -2.222709992964723380026725863
  46 1   19.786498807008836564591547358    3.957299829572688665280111309    6.595899659145428195472504740   -0.000000000000007206908680946   -0.000000000000000121864324187   -0.000000000000012719426206731    0.598281053801149820259297485    1.357665343885781084054542589   -0.087860986241178495870229881
  47 1   19.786498807008836564591547358    1.319099999999999939248596093    9.234099488718081616411836876   -0.000000000000007240735788727    0.000000000000002486726102813    0.000000000000019140505153059   -1.312530061896475475080592332    0.575952489145939550141406471    0.496548596925975860294499853
  48 1   17.148298977436116530270737712    3.957299829572688665280111309    9.234099488718081616411836876    0.000000000000006129753822581   -0.000000000000000140810757152    0.000000000000019101528084958    0.668355742403315411515052347   -0.170360239969371191071090266   -0.013197296823745400737304401
  49 1    1.319099999999999939248596093    6.595499659145376725177811750    6.595899659145428195472504740    0.000000000000002527492104498   -0.000000000000002572594914874   -0.000000000000012651771991168    2.971853445303671570343340136   -1.805918622897426883966431888   -0.571885725585181026175973784
  50 1    3.957299829572688665280111309    9.233699488718048797863957589    6.595899659145428195472504740   -0.000000000000000116226472890    0.000000000000005577135975265   -0.000000000000012680937029608   -2.223855932611529251374804517   -1.157926007211731000978716111   -2.291003802066053030017656056
  51 1    3.957299829572688665280111309    6.595499659145376725177811750    9.234099488718081616411836876   -0.000000000000000108420217249   -0.000000000000002590267410285    0.000000000000019098763369418   -0.469097360447767564028964671    0.595910556051717943404355537    1.478097986762622717549220397
  52 1    1.319099999999999939248596093    9.233699488718048797863957589    9.234099488718081616411836876    0.000000000000002462439974149    0.000000000000005574100209182    0.000000000000019147444046963   -1.725714188305026652869855752   -0.449177691892274744134283537    0.066564358278756022291311467
  53 1    6.595499659145376725177811750    6.595499659145376725177811750    6.595899659145428195472504740   -0.000000000000002592977915716   -0.000000000000002592503577266   -0.000000000000012655769986679   -1.644960203380595675781705722    0.338197804261633871991676870   -0.169154591911113344471218056
  54 1    9.233699488718048797863957589    9.233699488718048797863957589    6.595899659145428195472504740    0.000000000000005573158308545    0.000000000000005572887258002   -0.000000000000012706632621096   -1.105545469955631299185938587    3.502642076531505388459208916    0.327830040105315245746453456
  55 1    9.233699488718048797863957589    6.595499659145376725177811750    9.234099488718081616411836876    0.000000000000005557708427587   -0.000000000000002573191226068    0.000000000000019098207715805   -1.596540118030425059458821124    1.572398355959368609902071512   -0.808623667095612397304194019
  56 1    6.595499659145376725177811750    9.233699488718048797863957589    9.234099488718081616411836876   -0.000000000000002573950167589    0.000000000000005556366727399    0.000000000000019101026641453    0.245050983518838305652565168   -1.950571946782774235273905106    0.709527381573787918611628811
  57 1   11.871899318290756397686891432    6.595499659145376725177811750    6.595899659145428195472504740   -0.000000000000004467692220952   -0.000000000000002590158990068   -0.000000000000012720015741662    0.465247060641569010197571288    0.297760401032523602804502616    2.375683974637533779628029151
  58 1   14.510099147863435575800394872    9.233699488718048797863957589    6.595899659145428195472504740    0.000000000000000204941315654    0.000000000000005571965686155   -0.000000000000012709634505861    2.464446366363511664587804262   -0.688925982363824629395310239   -1.671223840353837752914500925
  59 1   14.510099147863435575800394872    6.595499659145376725177811750    9.234099488718081616411836876    0.000000000000000220147251123   -0.000000000000002589698204145    0.000000000000019098017980425   -1.374703185617886180835967025    2.570638867320884202172237565   -0.154042053742732526488978806
  60 1   11.871899318290756397686891432    9.233699488718048797863957589    9.234099488718081616411836876   -0.000000000000004492615318392    0.000000000000005546595355319    0.000000000000019112966417878    1.331541662814940796266682810    2.107143410390288629230326478    2.579815517780531752833894643
  61 1   17.148298977436116530270737712    6.595499659145376725177811750    6.595899659145428195472504740    0.000000000000006136584296268   -0.000000000000002566089701839   -0.000000000000012655133017903   -0.358642910775243128895795053   -1.212496095233607906749284666   -0.444524289299883579307248738
  62 1   19.786498807008836564591547358    9.233699488718048797863957589    6.595899659145428195472504740   -0.000000000000007179153105330    0.000000000000005551115123126   -0.000000000000012741977611919   -1.322217443985851614840498769    0.232417115660216860861808641   -2.258811340213037865964906814
  63 1   19.786498807008836564591547358    6.595499659145376725177811750    9.234099488718081616411836876   -0.000000000000007227725362657   -0.000000000000002602085213965    0.000000000000019095402342684   -2.079540048617491976301607792   -1.142611699561340232733641642   -1.303232564428014716995107847
  64 1   17.148298977436116530270737712    9.233699488718048797863957589    9.234099488718081616411836876    0.000000000000006110075553151    0.000000000000005527425305657    0.000000000000019100525197949   -2.428322932231877118169904861    0.805803151162957531639108311    1.515822152920408338871993692
  65 1    1.319099999999999939248596093    1.319099999999999939248596093   11.872299318290856717794667929    0.000000000000002550043509686    0.000000000000002550910871424   -0.000000000000012276854879922   -0.436973756715051286914075490    0.168809566341801720046333912   -2.342448418933407605635466098
  66 1    3.957299829572688665280111309    3.957299829572688665280111309   11.872299318290856717794667929   -0.000000000000000103216046821   -0.000000000000000098662397696   -0.000000000000012281408529047   -0.996241409249410403425883942   -1.881905000929460225478351276   -1.353150783904742304741830594
  67 1    6.595499659145376725177811750    1.319099999999999939248596093   11.872299318290856717794667929   -0.000000000000002578666447040    0.000000000000002532784366353   -0.000000000000012279301111074    2.266634141679967129334727360   -0.892819851089594829218754057   -1.193978124973672727549001138
  68 1    9.233699488718048797863957589    3.957299829572688665280111309   11.872299318290856717794667929    0.000000000000005585484331994   -0.000000000000000113624387676   -0.000000000000012261404998964   -1.385395762831981070206666118    1.078550650463830029579526126   -2.225162037919441004873988277
  69 1   11.871899318290756397686891432    1.319099999999999939248596093   11.872299318290856717794667929   -0.000000000000004533781119628    0.000000000000002534430998402   -0.000000000000012266880219935    1.013297530563737058884044018    1.339539836247076065589567406    0.346334494305809537095797168
  70 1   14.510099147863435575800394872    3.957299829572688665280111309   11.872299318290856717794667929    0.000000000000000229254549372   -0.000000000000000098879238131   -0.000000000000012287195458142    1.464712022023170856499518777   -1.413469092238538449279872111    0.168277269543405300078475761
  71 1   17.148298977436116530270737712    1.319099999999999939248596093   11.872299318290856717794667929    0.000000000000006115767614556    0.000000000000002583870617467   -0.000000000000012302008370324   -1.422234969134904103427174960   -0.273250554299583559014763523    1.550476975780179067498920631
  72 1   19.786498807008836564591547358    3.957299829572688665280111309   11.872299318290856717794667929   -0.000000000000007198994005087   -0.000000000000000126634813746   -0.000000000000012354483755472    4.487837606759608632955860230    2.085606125496441531907976241   -0.393707430472649333452750398
  73 1    1.319099999999999939248596093    6.595499659145376725177811750   11.872299318290856717794667929    0.000000000000002530961551450   -0.000000000000002578449606605   -0.000000000000012278155922529    2.332017831594412893281287324   -1.216476561967871683478392697   -0.039756445767072899621918936
  74 1    3.957299829572688665280111309    9.233699488718048797863957589   11.872299318290856717794667929   -0.000000000000000116226472890    0.000000000000005587327475687   -0.000000000000012258640283425    0.977607282710933112035434078    1.440495933598270550390907374    1.047301761791337826323911031
  75 1    6.595499659145376725177811750    6.595499659145376725177811750   11.872299318290856717794667929   -0.000000000000002596772623320   -0.000000000000002597599327477   -0.000000000000012278115264948    1.098414486918655619263063272    1.724739844055355852958655305   -2.348005762303196242157810048
  76 1    9.233699488718048797863957589    9.233699488718048797863957589   11.872299318290856717794667929    0.000000000000005581689624390    0.000000000000005581689624390   -0.000000000000012240534107144    0.107930114930654810767585161   -0.733248394076098319871448439   -0.749043139778697741881785532
  77 1   11.871899318290756397686891432    6.595499659145376725177811750   11.872299318290856717794667929   -0.000000000000004505978110168   -0.000000000000002594821059410   -0.000000000000012266615945656    0.852770631529118028346658775   -0.343280035502690650250912086   -2.594321021234952784340066501
  78 1   14.510099147863435575800394872    9.233699488718048797863957589   11.872299318290856717794667929    0.000000000000000238036586969    0.000000000000005577840706678   -0.000000000000012266758247191    0.872717672779222408685484424   -1.522852578918921118145135551    1.223244981275981801971397545
  79 1   17.148298977436116530270737712    6.595499659145376725177811750   11.872299318290856717794667929    0.000000000000006106660316307   -0.000000000000002572269654222   -0.000000000000012300382067065   -0.589439130850892278878916386    0.878371400673496061095590903    0.255171349837721217479469260
  80 1   19.786498807008836564591547358    9.233699488718048797863957589   11.872299318290856717794667929   -0.000000000000007168853184691    0.000000000000005560872942678   -0.000000000000012332366031154    1.852961882742767629750346714    3.445490564708713954189533979    0.481591727876390429674557936
  81 1    3.957299829572688665280111309    1.319099999999999939248596093   14.510499147863555435833404772   -0.000000000000000123165366794    0.000000000000002502934925291    0.000000000000003641401416510   -1.130895600420555480170037299   -0.069703622591712408040898197    0.579823206949936609255757958
  82 1    1.319099999999999939248596093    3.957299829572688665280111309   14.510499147863555435833404772    0.000000000000002465475740232   -0.000000000000000085868812061    0.000000000000003641618256944   -1.320469103610898642386928259   -2.869555547699115027882044160    0.209390759975818768756639088
  83 1    9.233699488718048797863957589    1.319099999999999939248596093   14.510499147863555435833404772    0.000000000000005577935574368    0.000000000000002495399720193    0.000000000000003616464766543    0.449734187575230759392752589    1.093830832280938691880578517   -0.153380728297374896440530279
  84 1    6.595499659145376725177811750    3.957299829572688665280111309   14.510499147863555435833404772   -0.000000000000002588315846375   -0.000000000000000110656384229    0.000000000000003596440907670   -2.128050736675938026110088686    2.059356233610353026364236939   -0.098946020531290534982815643
  85 1   14.510099147863435575800394872    1.319099999999999939248596093   14.510499147863555435833404772    0.000000000000000229308759481    0.000000000000002528047758112    0.000000000000003645087703896    1.027068591927672969177365303    0.011098046635404004017777524   -1.744478634956827978186311157
  86 1   11.871899318290756397686891432    3.957299829572688665280111309   14.510499147863555435833404772   -0.000000000000004505456337872   -0.000000000000000110154940725    0.000000000000003580686094851    0.056279044822126172986642700    1.363389408887861531383123292   -0.354459759624963732793645477
  87 1   19.786498807008836564591547358    1.319099999999999939248596093   14.510499147863555435833404772   -0.000000000000007215582298326    0.000000000000002500170209752    0.000000000000003665470704739   -0.726792303790734672830353702    2.235472129648009342872683192   -0.039310388199525397867617471
  88 1   17.148298977436116530270737712    3.957299829572688665280111309   14.510499147863555435833404772    0.000000000000006107148207285   -0.000000000000000141678118890    0.000000000000003623078399795    0.852998754125093405775714928   -0.297379715959770196676004161    1.393560990995925230606644618
  89 1    3.957299829572688665280111309    6.595499659145376725177811750   14.510499147863555435833404772   -0.000000000000000112757025938   -0.000000000000002588586896918    0.000000000000003594455462441   -0.979149191412017727564887082    0.520411041280105846063008812   -0.923655724766445973550332837
  90 1    1.319099999999999939248596093    9.233699488718048797863957589   14.510499147863555435833404772    0.000000000000002475884081088    0.000000000000005594483210025    0.000000000000003617548968715    0.401180803311708245040279053    1.164835724742259603914362742   -0.767663595535643228373601232
  91 1    9.233699488718048797863957589    6.595499659145376725177811750   14.510499147863555435833404772    0.000000000000005577989784476   -0.000000000000002569992829660    0.000000000000003571477152648   -1.174436058079852518432062425   -2.940926896615623675756978628    0.831639773739375809391560779
  92 1    6.595499659145376725177811750    9.233699488718048797863957589   14.510499147863555435833404772   -0.000000000000002570697561072    0.000000000000005579114644230    0.000000000000003571802413300    1.161314745301786910403052389    0.357940577279796945386891593   -0.697561418557791412808910536
  93 1   14.510099147863435575800394872    6.595499659145376725177811750   14.510499147863555435833404772    0.000000000000000219767780363   -0.000000000000002587312959365    0.000000000000003600371140545   -1.247660108347778740167655087    1.239405649445858070833992315    0.206798769416730754411304360
  94 1   11.871899318290756397686891432    9.233699488718048797863957589   14.510499147863555435833404772   -0.000000000000004515485207968    0.000000000000005569343272151    0.000000000000003553066044507   -2.671539425602567074946591674   -0.859423150326056206615987776   -0.848338362301462978187771569
  95 1   19.786498807008836564591547358    6.595499659145376725177811750   14.510499147863555435833404772   -0.000000000000007201704510518   -0.000000000000002596881043537    0.000000000000003621668936971    0.181790936786022594429113042    0.852731249897715648522478205    0.425182829105264115110429657
  96 1   17.148298977436116530270737712    9.233699488718048797863957589   14.510499147863555435833404772    0.000000000000006087253097420    0.000000000000005549000928889    0.000000000000003597518333578    0.077001540386967187723499251    0.448161014647346700456864710    0.452434922188798827047406803
  97 1    1.319099999999999939248596093    1.319099999999999939248596093   17.148698977436275470154214418    0.000000000000002536165721878    0.000000000000002534430998402    0.000000000000004548661794446   -0.043823922737871785770824573    0.219722907673332967792845238    0.388026260861522032108439362