LAMMPS (7 Feb 2024 - Development - patch_2Jun2022-7271-g417598498c)
log none
