ITEM: TIMESTEP
0
ITEM: NUMBER OF ATOMS
12
ITEM: BOX BOUNDS xy xz yz pp pp pp
-8.8344296827430302e-01 5.1364755065543157e+00 0.0000000000000000e+00
0.0000000000000000e+00 5.1934133375444702e+00 -8.8344296827430302e-01
0.0000000000000000e+00 5.2461598045212767e+00 0.0000000000000000e+00
ITEM: ATOMS id element x y z fx fy fz
   1 Hf    0.79296806000000031    2.37891959000000064    3.71379300999999984    0.21545612409415238   -0.00865298668692072   -0.06432951904929451
   2 Hf    3.01834094000000119    4.97562677999999980    4.15544258999999983   -0.21546005181665373   -0.00865684342372536    0.06436033878344088
   3 Hf    3.46006344999999982    2.81449477000000003    1.53236421999999983   -0.21546372250755719    0.00865410940066658    0.06433020787423091
   4 Hf    1.23469005999999992    0.21778759000000000    1.09071465000000023    0.21546110482355574    0.00865617713201061   -0.06436108802277318
   5  O    1.43661056000000009    3.85624494000000029    5.13377423000000022   -0.16882992983761036   -0.08454736913418200    0.20428516921996795
   6  O    2.37469844000000174    1.25953776000000017    2.73546187999999990    0.16884006813836369   -0.08454605471352626   -0.20427499576105840
   7  O    2.81642043999999991    1.33716941999999994    0.11238299999999998    0.16883081177763543    0.08454738918469426   -0.20428499705907491
   8  O    1.87833256000000004    3.93387661000000044    2.51069536000000149   -0.16883877509866418    0.08454539185895385    0.20427454091326863
   9  O    0.04523848000000007    1.71776788000000002    1.81649659000000008   -0.30234215609422010   -0.04425165566741462   -0.14922914627982992
  10  O    4.64951502999999988    4.31447506000000036    0.80658229000000026    0.30232972841560646   -0.04426711048060086    0.14920171330145504
  11  O    4.20779251999999993    3.47564649000000037    3.42966065000000020    0.30234477602250098    0.04425046626274595    0.14922989302994472
  12  O   -0.39648402999999999    0.87893931000000036    4.43957494999999991   -0.30232797791710131    0.04426848626729685   -0.14920211695027619
