LAMMPS (15 Jun 2023 - Development - patch_2Jun2022-5531-g0ba557ed1e)
fitpod ../HfO2_FPOD_020224_param.pod data.pod
**************** Begin of POD Potentials ****************
species: Hf O 
periodic boundary conditions: 1 1 1
number of enviroment clusters: 1
number of principal compoments: 1
inner cut-off radius: 1
outer cut-off radius: 5.5
bessel polynomial degree: 4
inverse polynomial degree: 8
one-body potential: 1
two-body radial basis functions: 8
three-body radial basis functions: 6
three-body angular degree: 4
four-body radial basis functions: 4
four-body angular degree: 2
five-body radial basis functions: 4
five-body angular degree: 2
six-body radial basis functions: 3
six-body angular degree: 2
seven-body radial basis functions: 0
seven-body angular degree: 0
number of local descriptors per element for one-body potential: 1
number of local descriptors per element for two-body potential: 16
number of local descriptors per element for three-body potential: 90
number of local descriptors per element for four-body potential: 64
number of local descriptors per element for five-body potential: 192
number of local descriptors per element for six-body potential: 198
number of local descriptors per element for seven-body potential: 0
number of local descriptors per element for all potentials: 561
number of global descriptors: 1122
**************** End of POD Potentials ****************

**************** Begin of Data File ****************
file format: extxyz
file extension: xyz
path to training data set: train
path to test data set: 
path to enviroment configuration set: 
basename for output files: HfO2FPOD2
training fraction: 1
test fraction: 1
randomize training data set: 0
randomize test data set: 0
error analysis for training data set: 1
error analysis for test data set: 0
energy/force calculation for training data set: 0
energy/force calculation for test data set: 0
fitting weight for energy: 100
fitting weight for force: 2
fitting weight for stress: 0
save pod descriptors: 1
compute pod descriptors: 1
**************** End of Data File ****************
**************** Begin of Training Data Set ****************
-------------------------------------------------------------------------------
             data file             | number of configurations | number of atoms
-------------------------------------------------------------------------------
 HfO2_mp352_EOS_1D_form_sorted.xyz |                 1        |          12
-------------------------------------------------------------------------------
number of files: 1
number of configurations in all files: 1
number of atoms in all files: 12
minimum number of atoms: 12
maximum number of atoms: 12
**************** End of Training Data Set ****************
**************** Begin of Memory Allocation ****************
maximum number of atoms in periodic domain: 12
maximum number of atoms in extended domain: 1500
maximum number of neighbors in extended domain: 18000
size of double memory: 2463912
size of descriptor matrix: 1122 x 1122
**************** End of Memory Allocation ****************
**************** Begin Calculating Descriptors ****************
Configuration: # 1
**************** End Calculating Descriptors ****************
Total wall time: 0:00:00
