LAMMPS (27 Jun 2024)
OMP_NUM_THREADS environment is not set. Defaulting to 1 thread. (src/comm.cpp:98)
  using 1 OpenMP thread(s) per MPI task
Reading data file ...
  orthogonal box = (0 0 0) to (44.844435 44.38448 40.643788)
  5 by 2 by 2 MPI processor grid
  reading atoms ...
  3584 atoms
  read_data CPU = 0.021 seconds
**************** Begin of POD Potentials ****************
species: Hf 
periodic boundary conditions: 1 1 1
number of environment clusters: 8
number of principal compoments: 2
inner cut-off radius: 1
outer cut-off radius: 5
cut-off function type: 1
gaussian_exponents: 
polynomial_degrees: 
bessel polynomial degree: 4
inverse polynomial degree: 10
one-body potential: 1
two-body radial basis functions: 8
three-body radial basis functions: 8
three-body angular degree: 6
four-body radial basis functions: 7
four-body angular degree: 5
five-body radial basis functions: 0
five-body angular degree: 0
six-body radial basis functions: 0
six-body angular degree: 0
seven-body radial basis functions: 0
seven-body angular degree: 0
number of local descriptors per element for one-body potential: 1
number of local descriptors per element for two-body potential: 8
number of local descriptors per element for three-body potential: 56
number of local descriptors per element for four-body potential: 112
number of local descriptors per element for five-body potential: 0
number of local descriptors per element for six-body potential: 0
number of local descriptors per element for seven-body potential: 0
number of local descriptors per element for all potentials: 177
number of global descriptors: 1409
**************** End of POD Potentials ****************

**************** Begin of Model Coefficients ****************
total number of coefficients for POD potential: 1409
total number of elements for PCA projection matrix: 352
total number of elements for PCA centroids: 16
**************** End of Model Coefficients ****************


CITE-CITE-CITE-CITE-CITE-CITE-CITE-CITE-CITE-CITE-CITE-CITE-CITE

Your simulation uses code contributions which should be cited:
- Type Label Framework: https://doi.org/10.1021/acs.jpcb.3c08419
The log file lists these citations in BibTeX format.

CITE-CITE-CITE-CITE-CITE-CITE-CITE-CITE-CITE-CITE-CITE-CITE-CITE

Neighbor list info ...
  update: every = 1 steps, delay = 0 steps, check = no
  max neighbors/atom: 2000, page size: 100000
  master list distance cutoff = 7
  ghost atom cutoff = 7
  binsize = 3.5, bins = 13 13 12
  1 neighbor lists, perpetual/occasional/extra = 1 0 0
  (1) pair pod, perpetual
      attributes: full, newton on
      pair build: full/bin/atomonly
      stencil: full/bin/3d
      bin: standard
Setting up Verlet run ...
  Unit style    : metal
  Current step  : 0
  Time step     : 0.001
Per MPI rank memory allocation (min/avg/max) = 2.609 | 2.609 | 2.613 Mbytes
   Step          Temp          TotEng         PotEng         KinEng         Press          Volume    
         0   300           -26111.045     -26249.986      138.94173      1834.5017      80897.271    
       100   91.328569     -26105.772     -26148.07       42.297831      3808.6428      80897.271    
       200   152.62978     -26088.284     -26158.973      70.688818      4266.2557      80897.271    
       300   187.48709     -26067.431     -26154.264      86.832603      4411.0312      80897.271    
       400   243.10727     -26045.742     -26158.335      112.59248      4263.843       80897.271    
       500   270.49895     -26022.289     -26147.567      125.27864      5097.3144      80897.271    
       600   255.25897     -25999.97      -26118.19       118.22041      6173.1485      80897.271    
       700   266.66139     -25980.235     -26103.736      123.50132      7061.5234      80897.271    
       800   298.64702     -25965.228     -26103.543      138.31511      7075.1479      80897.271    
       900   332.51142     -25957.144     -26111.143      153.99904      6945.1319      80897.271    
      1000   319.32497     -25962.425     -26110.317      147.89188      6847.4528      80897.271    
      1100   300.03593     -25971.977     -26110.935      138.95837      6850.4714      80897.271    
      1200   277.83759     -25979.413     -26108.09       128.67745      6865.6712      80897.271    
      1300   286.61108     -25978.96      -26111.701      132.7408       6685.9363      80897.271    
      1400   309.2664      -25972.188     -26115.422      143.23336      6648.2026      80897.271    
      1500   306.20309     -25967.549     -26109.363      141.81463      6757.6846      80897.271    
      1600   308.19326     -25964.015     -26106.752      142.73635      6942.3495      80897.271    
      1700   305.65284     -25965.032     -26106.591      141.55978      7122.3111      80897.271    
      1800   282.25936     -25972.087     -26102.812      130.72535      7022.9669      80897.271    
      1900   305.81245     -25975.032     -26116.666      141.6337       6649.2028      80897.271    
      2000   293.00627     -25978.349     -26114.052      135.70266      6555.3665      80897.271    
      2100   304.10057     -25972.532     -26113.373      140.84086      6773.1686      80897.271    
      2200   298.76643     -25967.157     -26105.528      138.37042      6997.7836      80897.271    
      2300   294.72244     -25965.275     -26101.773      136.49748      7157.2668      80897.271    
      2400   308.45449     -25966.43      -26109.287      142.85733      6901.5034      80897.271    
      2500   296.85482     -25973.378     -26110.864      137.48507      6678.5331      80897.271    
      2600   298.3515      -25976.383     -26114.561      138.17824      6591.6007      80897.271    
      2700   290.03624     -25975.67      -26109.997      134.32712      6797.4682      80897.271    
      2800   295.83717     -25970.546     -26107.56       137.01376      7043.5737      80897.271    
      2900   306.40835     -25966.611     -26108.52       141.90969      6915.9703      80897.271    
      3000   305.08522     -25966.426     -26107.723      141.2969       6869.2193      80897.271    
      3100   307.04747     -25968.262     -26110.468      142.20569      6860.0252      80897.271    
      3200   293.52463     -25973.578     -26109.521      135.94273      6786.7585      80897.271    
      3300   295.14154     -25976.071     -26112.763      136.69159      6754.9375      80897.271    
      3400   289.90207     -25975.712     -26109.977      134.26498      6827.9559      80897.271    
      3500   301.87193     -25970.242     -26110.051      139.80869      6864.2189      80897.271    
      3600   310.03689     -25965.748     -26109.338      143.5902       6892.3522      80897.271    
      3700   306.41102     -25965.459     -26107.37       141.91092      7054.7541      80897.271    
      3800   297.584       -25970.012     -26107.835      137.82279      6965.4235      80897.271    
      3900   290.58973     -25975.175     -26109.758      134.58346      6843.089       80897.271    
      4000   295.29397     -25975.559     -26112.321      136.76218      6658.516       80897.271    
      4100   306.04785     -25972.632     -26114.374      141.74273      6761.1902      80897.271    
      4200   296.39501     -25970.281     -26107.553      137.27212      6786.5391      80897.271    
      4300   311.22667     -25965.78      -26109.922      144.14124      6905.3074      80897.271    
      4400   291.53123     -25967.974     -26102.994      135.01951      6993.2241      80897.271    
      4500   307.90169     -25969.188     -26111.79       142.60131      6823.6471      80897.271    
      4600   297.7332      -25973.997     -26111.889      137.89189      6780.4213      80897.271    
      4700   295.94885     -25976.183     -26113.248      137.06548      6682.2434      80897.271    
      4800   297.41605     -25973.777     -26111.522      137.745        6774.6543      80897.271    
      4900   302.79026     -25968.826     -26109.06       140.23401      6767.9704      80897.271    
      5000   303.92597     -25965.337     -26106.097      140.76         6934.0288      80897.271    
      5100   307.25889     -25966.024     -26108.328      142.3036       6882.9567      80897.271    
      5200   297.1981      -25971.484     -26109.128      137.64406      6855.3444      80897.271    
      5300   296.58389     -25975.963     -26113.323      137.3596       6727.922       80897.271    
      5400   297.72517     -25975.859     -26113.747      137.88817      6577.8875      80897.271    
      5500   298.34462     -25971.508     -26109.683      138.17506      6913.0236      80897.271    
      5600   303.50349     -25967.294     -26107.858      140.56433      6903.9174      80897.271    
      5700   301.2757      -25967.66      -26107.192      139.53256      6956.3374      80897.271    
      5800   304.26313     -25969.422     -26110.338      140.91615      6720.4998      80897.271    
      5900   294.81791     -25971.934     -26108.476      136.5417       6887.5844      80897.271    
      6000   298.72246     -25973.325     -26111.675      138.35005      6701.4863      80897.271    
      6100   300.8584      -25972.933     -26112.273      139.33929      6714.7457      80897.271    
      6200   304.5942      -25970.987     -26112.057      141.06949      6785.8924      80897.271    
      6300   296.48502     -25970.193     -26107.506      137.31381      6869.8623      80897.271    
      6400   302.32429     -25968.705     -26108.723      140.0182       6860.2229      80897.271    
      6500   302.98767     -25969.45      -26109.776      140.32544      6888.0842      80897.271    
      6600   297.18095     -25972.185     -26109.821      137.63612      6874.7444      80897.271    
      6700   297.17199     -25974.012     -26111.644      137.63197      6808.9108      80897.271    
      6800   299.36457     -25972.808     -26111.455      138.64744      6843.1186      80897.271    
      6900   295.7901      -25970.479     -26107.471      136.99196      6788.3442      80897.271    
      7000   305.5198      -25968.361     -26109.859      141.49816      6839.8624      80897.271    
      7100   303.53342     -25968.906     -26109.485      140.57819      6836.4024      80897.271    
      7200   296.64067     -25971.651     -26109.037      137.38589      6891.4702      80897.271    
      7300   291.7559      -25974.264     -26109.387      135.12356      6697.517       80897.271    
      7400   302.28315     -25973.375     -26113.374      139.99914      6708.5341      80897.271    
      7500   301.01977     -25970.045     -26109.459      139.41403      6793.101       80897.271    
      7600   306.11402     -25966.831     -26108.605      141.77337      6858.6449      80897.271    
      7700   300.67406     -25968.792     -26108.046      139.25391      6882.5763      80897.271    
      7800   294.71244     -25972.326     -26108.818      136.49285      6812.8709      80897.271    
      7900   300.99188     -25972.65      -26112.051      139.40111      6851.9745      80897.271    
      8000   300.69866     -25972         -26111.265      139.26531      6723.9255      80897.271    
      8100   308.81488     -25968.172     -26111.196      143.02425      6771.1784      80897.271    
      8200   300.02542     -25964.06      -26103.013      138.9535       7124.1233      80897.271    
      8300   307.19878     -25965.253     -26107.528      142.27577      6904.7594      80897.271    
      8400   302.87228     -25968.498     -26108.77       140.27199      6977.7425      80897.271    
      8500   295.5847      -25970.817     -26107.713      136.89683      6850.0381      80897.271    
      8600   302.71328     -25971.403     -26111.601      140.19836      6830.6249      80897.271    
      8700   301.46793     -25973.154     -26112.776      139.62159      6709.7897      80897.271    
      8800   293.87444     -25975.512     -26111.617      136.10474      6709.1449      80897.271    
      8900   293.96786     -25975.854     -26112.002      136.14801      6665.4006      80897.271    
      9000   297.81411     -25971.489     -26109.418      137.92936      6785.8646      80897.271    
      9100   300.95043     -25969.08      -26108.462      139.38191      6813.6429      80897.271    
      9200   305.81565     -25968.057     -26109.692      141.63519      6838.2662      80897.271    
      9300   299.64272     -25970.015     -26108.791      138.77626      6919.0492      80897.271    
      9400   296.03974     -25974.205     -26111.313      137.10758      6728.0086      80897.271    
      9500   293.26011     -25974.602     -26110.422      135.82022      6792.5942      80897.271    
      9600   299.57392     -25972.973     -26111.718      138.7444       6716.0493      80897.271    
      9700   302.68043     -25970.999     -26111.182      140.18314      6786.8692      80897.271    
      9800   298.24629     -25970.124     -26108.253      138.12952      6860.6587      80897.271    
      9900   301.15433     -25969.726     -26109.202      139.47635      6795.8648      80897.271    
     10000   293.02176     -25972.757     -26108.467      135.70983      6821.6679      80897.271    
     10100   296.57114     -25976.899     -26114.253      137.35369      6644.2371      80897.271    
     10200   294.64396     -25976.402     -26112.863      136.46114      6643.2584      80897.271    
     10300   301.40925     -25971.77      -26111.364      139.59441      6709.9516      80897.271    
     10400   295.15017     -25971.798     -26108.494      136.69558      6841.769       80897.271    
     10500   302.86137     -25970.258     -26110.525      140.26694      6864.8369      80897.271    
     10600   302.33796     -25968.563     -26108.588      140.02453      6846.7877      80897.271    
     10700   302.63968     -25968.573     -26108.737      140.16427      6936.8856      80897.271    
     10800   297.45168     -25972.779     -26110.54       137.7615       6729.3223      80897.271    
     10900   294.59912     -25975.34      -26111.78       136.44037      6657.9878      80897.271    
     11000   299.19441     -25973.646     -26112.214      138.56863      6702.0063      80897.271    
     11100   300.92844     -25971.062     -26110.433      139.37173      6793.6388      80897.271    
     11200   298.89517     -25970.45      -26108.88       138.43004      6788.5157      80897.271    
     11300   299.56817     -25970.545     -26109.286      138.74173      6835.8726      80897.271    
     11400   297.68773     -25972.247     -26110.118      137.87083      6801.6553      80897.271    
     11500   306.30742     -25974.409     -26116.272      141.86294      6599.6045      80897.271    
     11600   288.29102     -25977.662     -26111.181      133.51884      6708.9447      80897.271    
     11700   293.00529     -25973.793     -26109.495      135.7022       6835.1745      80897.271    
     11800   299.81733     -25971.532     -26110.39       138.85713      6710.4598      80897.271    
     11900   303.12901     -25970.603     -26110.994      140.3909       6741.3163      80897.271    
     12000   300.03467     -25969.915     -26108.873      138.95779      6805.456       80897.271    
     12100   305.65555     -25967.879     -26109.44       141.56103      6833.5887      80897.271    
     12200   300.78857     -25968.832     -26108.139      139.30695      6838.3078      80897.271    
     12300   293.7892      -25972.229     -26108.294      136.06526      6819.1708      80897.271    
     12400   298.15992     -25973.479     -26111.569      138.08952      6735.654       80897.271    
     12500   299.97514     -25973.727     -26112.657      138.93022      6676.8025      80897.271    
     12600   305.04868     -25968.845     -26110.125      141.27997      6806.0556      80897.271    
     12700   303.20573     -25967.391     -26107.817      140.42643      6910.5263      80897.271    
     12800   296.07552     -25969.671     -26106.795      137.12415      6877.7564      80897.271    
     12900   303.64877     -25971.857     -26112.489      140.63162      6726.2786      80897.271    
     13000   297.32639     -25972.758     -26110.462      137.70348      6776.8842      80897.271    
     13100   297.09719     -25971.537     -26109.135      137.59732      6776.0065      80897.271    
     13200   305.33612     -25969.289     -26110.702      141.4131       6801.3178      80897.271    
     13300   298.66129     -25969.789     -26108.11       138.32172      6856.5313      80897.271    
     13400   300.52878     -25971.62      -26110.806      139.18663      6762.6403      80897.271    
     13500   292.71387     -25974.859     -26110.426      135.56724      6763.3438      80897.271    
     13600   298.39031     -25973.558     -26111.754      138.19622      6765.3109      80897.271    
     13700   304.46218     -25969.135     -26110.144      141.00834      6780.5619      80897.271    
     13800   305.31161     -25966.853     -26108.254      141.40174      6979.8632      80897.271    
     13900   301.70704     -25968.869     -26108.601      139.73233      6873.6341      80897.271    
     14000   302.09567     -25970.652     -26110.564      139.91232      6800.8611      80897.271    
     14100   294.61601     -25972.57      -26109.018      136.44819      6776.3755      80897.271    
     14200   302.79088     -25971.592     -26111.826      140.2343       6779.148       80897.271    
     14300   298.75158     -25968.413     -26106.777      138.36354      6828.1685      80897.271    
     14400   307.69157     -25964.267     -26106.771      142.504        6974.1478      80897.271    
     14500   300.06017     -25967.587     -26106.557      138.9696       6967.0193      80897.271    
     14600   302.43333     -25970.9       -26110.969      140.0687       6791.3759      80897.271    
     14700   293.64822     -25972.751     -26108.751      135.99997      6809.0954      80897.271    
     14800   300.03048     -25971.941     -26110.897      138.95585      6823.6432      80897.271    
     14900   301.15979     -25970.164     -26109.643      139.47888      6799.6004      80897.271    
     15000   306.51866     -25965.385     -26107.346      141.96078      6993.645       80897.271    
     15100   304.58927     -25966.918     -26107.985      141.0672       6929.7         80897.271    
     15200   299.09991     -25970.183     -26108.708      138.52486      6870.7778      80897.271    
     15300   301.35735     -25970.697     -26110.267      139.57037      6810.3078      80897.271    
     15400   302.2129      -25970.961     -26110.928      139.96661      6773.0633      80897.271    
     15500   294.15779     -25972.383     -26108.619      136.23598      6830.8346      80897.271    
     15600   297.51149     -25972.433     -26110.223      137.7892       6806.771       80897.271    
     15700   300.63919     -25971.37      -26110.608      139.23776      6735.6623      80897.271    
     15800   301.73375     -25969.007     -26108.752      139.7447       6826.4848      80897.271    
     15900   305.07194     -25967.531     -26108.822      141.29075      6924.3179      80897.271    
     16000   304.36508     -25969.34      -26110.303      140.96337      6813.3541      80897.271    
     16100   294.97632     -25974.386     -26111.001      136.61507      6684.757       80897.271    
     16200   295.53693     -25974.39      -26111.265      136.87471      6800.2254      80897.271    
     16300   295.54584     -25971.636     -26108.515      136.87883      6791.7916      80897.271    
     16400   302.15155     -25968.688     -26108.626      139.9382       6813.1467      80897.271    
     16500   306.53846     -25968.977     -26110.947      141.96995      6783.3162      80897.271    
     16600   297.28764     -25970.7       -26108.386      137.68553      6856.7336      80897.271    
     16700   299.85848     -25971.102     -26109.978      138.87619      6845.3829      80897.271    
     16800   297.97896     -25971.226     -26109.231      138.00571      6788.4429      80897.271    
     16900   306.52899     -25967.996     -26109.962      141.96556      6840.7605      80897.271    
     17000   309.98522     -25964.73      -26108.297      143.56628      6989.2472      80897.271    
     17100   294.80041     -25966.497     -26103.031      136.5336       7104.3348      80897.271    
     17200   301.19548     -25970.412     -26109.907      139.4954       6815.5629      80897.271    
     17300   302.35099     -25971.384     -26111.415      140.03056      6747.3775      80897.271    
     17400   301.94435     -25970.964     -26110.806      139.84223      6741.0992      80897.271    
     17500   300.16566     -25969.789     -26108.808      139.01845      6944.3207      80897.271    
     17600   301.29906     -25968.567     -26108.111      139.54337      6891.197       80897.271    
     17700   299.7919      -25970.131     -26108.976      138.84535      6881.8674      80897.271    
     17800   299.2726      -25974.044     -26112.649      138.60484      6735.1788      80897.271    
     17900   293.61474     -25975.17      -26111.154      135.98447      6695.0973      80897.271    
     18000   299.21438     -25972.51      -26111.088      138.57788      6772.0535      80897.271    
     18100   294.54295     -25970.464     -26106.879      136.41435      6951.3029      80897.271    
     18200   300.04189     -25969.663     -26108.625      138.96113      6901.5635      80897.271    
     18300   305.2473      -25969.899     -26111.271      141.37196      6769.3133      80897.271    
     18400   296.28278     -25971.901     -26109.122      137.22014      6763.2403      80897.271    
     18500   298.9082      -25973.141     -26111.577      138.43607      6782.4536      80897.271    
     18600   289.65335     -25976.226     -26110.376      134.14979      6599.2476      80897.271    
     18700   299.97682     -25974.297     -26113.228      138.93099      6671.8103      80897.271    
     18800   298.93152     -25970.817     -26109.264      138.44688      6776.3483      80897.271    
     18900   302.86122     -25969.173     -26109.44       140.26687      6780.0322      80897.271    
     19000   299.56852     -25969.268     -26108.01       138.7419       6807.5956      80897.271    
     19100   300.62741     -25970.197     -26109.429      139.23231      6915.2697      80897.271    
     19200   298.15436     -25975.2       -26113.287      138.08694      6646.5295      80897.271    
     19300   293.28057     -25975.718     -26111.548      135.8297       6739.3271      80897.271    
     19400   302.05479     -25971.521     -26111.415      139.89338      6826.1352      80897.271    
     19500   296.32459     -25970.624     -26107.863      137.2395       6954.9531      80897.271    
     19600   302.82684     -25969.354     -26109.605      140.25095      6776.5557      80897.271    
     19700   300.32357     -25969.921     -26109.013      139.09159      6907.2275      80897.271    
     19800   292.28307     -25974.951     -26110.319      135.36772      6761.1811      80897.271    
     19900   296.8097      -25975.399     -26112.864      137.46418      6680.9712      80897.271    
     20000   303.2586      -25972.384     -26112.835      140.45091      6703.7125      80897.271    
     20100   296.27608     -25969.81      -26107.027      137.21704      6796.3955      80897.271    
     20200   304.15617     -25969.361     -26110.227      140.86661      6896.9911      80897.271    
     20300   297.77372     -25971.56      -26109.47       137.91065      6772.9017      80897.271    
     20400   298.16366     -25972.647     -26110.739      138.09125      6824.5546      80897.271    
     20500   298.01819     -25971.457     -26109.481      138.02388      6686.9899      80897.271    
     20600   301.25376     -25967.332     -26106.855      139.5224       6927.9249      80897.271    
     20700   309.19759     -25966.404     -26109.606      143.20149      6834.9523      80897.271    
     20800   295.1128      -25970.685     -26107.364      136.67828      6918.7319      80897.271    
     20900   299.81261     -25972.075     -26110.93       138.85494      6714.1725      80897.271    
     21000   301.14455     -25971.601     -26111.073      139.47182      6775.0539      80897.271    
     21100   300.56566     -25969.855     -26109.059      139.20371      6826.8353      80897.271    
     21200   299.17436     -25967.796     -26106.356      138.55934      6946.3077      80897.271    
     21300   307.25276     -25965.846     -26108.146      142.30077      6867.2263      80897.271    
     21400   303.58358     -25968.194     -26108.795      140.60143      6701.6197      80897.271    
     21500   303.29242     -25972.157     -26112.623      140.46658      6731.3808      80897.271    
     21600   296.72545     -25973.378     -26110.803      137.42516      6782.8745      80897.271    
     21700   298.95196     -25972.499     -26110.956      138.45634      6780.1877      80897.271    
     21800   298.33522     -25969.836     -26108.006      138.1707       6856.5783      80897.271    
     21900   305.52716     -25965.503     -26107.005      141.50157      6944.1509      80897.271    
     22000   303.90279     -25966.956     -26107.705      140.74927      6895.8109      80897.271    
     22100   300.93968     -25970.875     -26110.252      139.37693      6842.7063      80897.271    
     22200   298.71696     -25972.498     -26110.846      138.3475       6704.3213      80897.271    
     22300   295.69399     -25972.788     -26109.736      136.94745      6756.0619      80897.271    
     22400   305.71065     -25969.609     -26111.196      141.58655      6751.6159      80897.271    
     22500   305.36062     -25967.254     -26108.678      141.42444      6884.5838      80897.271    
     22600   300.69801     -25968.729     -26107.994      139.26501      6831.3196      80897.271    
     22700   300.35514     -25969.667     -26108.773      139.10621      6874.852       80897.271    
     22800   299.77243     -25971.373     -26110.21       138.83633      6781.2305      80897.271    
     22900   298.70078     -25972.899     -26111.239      138.34001      6798.5301      80897.271    
     23000   294.72461     -25973.172     -26109.67       136.49849      6793.6608      80897.271    
     23100   301.84476     -25971.464     -26111.26       139.79611      6749.4584      80897.271    
     23200   301.59491     -25968.958     -26108.638      139.68039      6774.5052      80897.271    
     23300   305.65959     -25966.865     -26108.428      141.56291      6855.9155      80897.271    
     23400   300.81247     -25968.748     -26108.066      139.31802      6937.0309      80897.271    
     23500   296.8076      -25973.354     -26110.817      137.46321      6687.7087      80897.271    
     23600   297.7556      -25973.473     -26111.375      137.90226      6662.6007      80897.271    
     23700   301.73965     -25971.581     -26111.328      139.74743      6763.7843      80897.271    
     23800   303.1363      -25968.961     -26109.355      140.39427      6839.7435      80897.271    
     23900   302.20185     -25968.149     -26108.11       139.96149      6919.4118      80897.271    
     24000   290.1146      -25974.001     -26108.365      134.36342      6824.7256      80897.271    
     24100   302.66284     -25975.176     -26115.351      140.17499      6648.5079      80897.271    
     24200   294.46444     -25974.54      -26110.918      136.378        6703.9912      80897.271    
     24300   301.57946     -25970.36      -26110.033      139.67324      6910.4922      80897.271    
     24400   299.59072     -25969.568     -26108.32       138.75218      6887.1859      80897.271    
     24500   300.38628     -25969.848     -26108.969      139.12063      6841.2192      80897.271    
     24600   299.31073     -25971.738     -26110.361      138.6225       6812.8243      80897.271    
     24700   294.88257     -25976.114     -26112.686      136.57165      6668.0797      80897.271    
     24800   292.94378     -25976.192     -26111.866      135.67372      6788.5962      80897.271    
     24900   302.07702     -25972.39      -26112.293      139.90368      6803.3513      80897.271    
     25000   300.24712     -25971.222     -26110.278      139.05618      6786.157       80897.271    
     25100   296.3771      -25970.381     -26107.645      137.26382      6825.0324      80897.271    
     25200   311.7534      -25967.448     -26111.833      144.38519      6890.0826      80897.271    
     25300   296.97        -25969.507     -26107.045      137.53842      6842.9003      80897.271    
     25400   297.38804     -25974.869     -26112.601      137.73203      6660.8604      80897.271    
     25500   297.0978      -25974.913     -26112.511      137.59761      6666.6317      80897.271    
     25600   293.68809     -25971.987     -26108.005      136.01844      6908.9378      80897.271    
     25700   305.36616     -25969.351     -26110.778      141.42701      6767.1018      80897.271    
     25800   299.70994     -25970.353     -26109.16       138.80739      6786.6715      80897.271    
     25900   302.3605      -25971.471     -26111.505      140.03497      6758.7021      80897.271    
     26000   291.23528     -25974.416     -26109.299      134.88244      6784.3031      80897.271    
     26100   293.84355     -25975.054     -26111.144      136.09044      6771.7653      80897.271    
     26200   304.19148     -25971.911     -26112.794      140.88297      6745.48        80897.271    
     26300   298.73697     -25969.654     -26108.01       138.35677      6890.4992      80897.271    
     26400   306.63827     -25968.231     -26110.247      142.01617      6796.8591      80897.271    
     26500   299.30592     -25970.625     -26109.245      138.62027      6834.1234      80897.271    
     26600   297.20821     -25974.528     -26112.177      137.64874      6676.0692      80897.271    
     26700   289.49873     -25977.192     -26111.27       134.07818      6686.6111      80897.271    
     26800   305.43011     -25973.083     -26114.54       141.45663      6639.4471      80897.271    
     26900   295.04309     -25970.622     -26107.268      136.64599      6924.6059      80897.271    
     27000   300.97528     -25968.826     -26108.219      139.39342      6849.051       80897.271    
     27100   305.82508     -25969.331     -26110.97       141.63955      6770.4811      80897.271    
     27200   295.23149     -25972.541     -26109.274      136.73325      6808.1456      80897.271    
     27300   297.34022     -25973.107     -26110.816      137.70988      6775.7747      80897.271    
     27400   297.02743     -25972.941     -26110.506      137.56502      6710.0567      80897.271    
     27500   301.47996     -25969.588     -26109.215      139.62716      6828.6114      80897.271    
     27600   301.62004     -25967.791     -26107.483      139.69203      6976.9385      80897.271    
     27700   299.29811     -25969.506     -26108.123      138.61666      6882.618       80897.271    
     27800   297.30105     -25973.34      -26111.032      137.69174      6782.1623      80897.271    
     27900   305.41578     -25974.033     -26115.483      141.44999      6676.3085      80897.271    
     28000   291.57964     -25973.792     -26108.834      135.04193      6834.2728      80897.271    
     28100   295.79044     -25972.031     -26109.023      136.99212      6770.7626      80897.271    
     28200   309.15441     -25969.478     -26112.66       143.1815       6761.9157      80897.271    
     28300   297.36267     -25970.727     -26108.447      137.72028      6738.4591      80897.271    
     28400   300.9128      -25971.507     -26110.872      139.36448      6731.7618      80897.271    
     28500   291.64863     -25974.354     -26109.428      135.07388      6678.6508      80897.271    
     28600   297.31944     -25975.813     -26113.513      137.70026      6598.4476      80897.271    
     28700   293.36142     -25974.174     -26110.041      135.86714      6718.2866      80897.271    
     28800   307.41395     -25969.454     -26111.83       142.37542      6730.6687      80897.271    
     28900   299.00678     -25969.767     -26108.249      138.48173      6836.612       80897.271    
     29000   295.75543     -25970.509     -26107.485      136.9759       6877.0087      80897.271    
     29100   293.65402     -25972.84      -26108.842      136.00266      6807.5702      80897.271    
     29200   300.79934     -25974.812     -26114.124      139.31194      6571.5183      80897.271    
     29300   295.18856     -25975.505     -26112.218      136.71336      6667.3759      80897.271    
     29400   302.36463     -25970.252     -26110.289      140.03688      6831.0195      80897.271    
     29500   301.62838     -25969.158     -26108.854      139.6959       6851.5958      80897.271    
     29600   301.12354     -25969.823     -26109.285      139.46209      6823.8269      80897.271    
     29700   296.12119     -25972.173     -26109.319      137.1453       6824.7921      80897.271    
     29800   295.98852     -25975.341     -26112.425      137.08386      6656.564       80897.271    
     29900   298.90638     -25976.096     -26114.531      138.43523      6618.8869      80897.271    
     30000   301.72504     -25971.45      -26111.19       139.74066      6790.7978      80897.271    
     30100   296.42441     -25968.54      -26105.826      137.28573      6888.8774      80897.271    
     30200   300.83331     -25967.628     -26106.956      139.32767      6979.1668      80897.271    
     30300   300.54899     -25970.396     -26109.592      139.19599      6815.7284      80897.271    
     30400   301.1277      -25973.806     -26113.27       139.46401      6715.1926      80897.271    
     30500   297.04368     -25973.477     -26111.05       137.57254      6781.7258      80897.271    
     30600   293.07822     -25972.129     -26107.865      135.73598      6890.5465      80897.271    
     30700   302.36373     -25969.572     -26109.608      140.03647      6785.2586      80897.271    
     30800   303.76192     -25969.073     -26109.757      140.68402      6863.797       80897.271    
     30900   298.96536     -25970.674     -26109.136      138.46255      6770.9296      80897.271    
     31000   300.4201      -25971.522     -26110.658      139.13629      6790.6666      80897.271    
     31100   299.61206     -25971.747     -26110.509      138.76206      6808.6585      80897.271    
     31200   294.10518     -25971.827     -26108.039      136.21161      6772.8242      80897.271    
     31300   307.11034     -25969.028     -26111.262      142.23481      6847.7651      80897.271    
     31400   301.46727     -25968.685     -26108.306      139.62128      6828.8952      80897.271    
     31500   298.65376     -25971.387     -26109.706      138.31823      6813.7633      80897.271    
     31600   299.61507     -25974.877     -26113.64       138.76345      6680.1133      80897.271    
     31700   291.1405      -25975.33      -26110.169      134.83855      6701.8595      80897.271    
     31800   301.04801     -25971.052     -26110.479      139.4271       6884.577       80897.271    
     31900   301.11977     -25969.56      -26109.021      139.46034      6888.0121      80897.271    
     32000   300.86875     -25969.854     -26109.199      139.34408      6752.5291      80897.271    
     32100   298.9991      -25972.213     -26110.691      138.47817      6752.9077      80897.271    
     32200   293.89001     -25975.337     -26111.449      136.11195      6726.8365      80897.271    
     32300   292.06226     -25976.82      -26112.086      135.26545      6661.8087      80897.271    
     32400   300.48588     -25974.793     -26113.96       139.16676      6642.8549      80897.271    
     32500   296.86095     -25970.178     -26107.666      137.48791      6852.7812      80897.271    
     32600   300.17938     -25968.677     -26107.701      139.02481      6932.1079      80897.271    
     32700   303.09172     -25969.172     -26109.546      140.37363      6919.5965      80897.271    
     32800   300.444       -25972.279     -26111.426      139.14736      6714.8582      80897.271    
     32900   296.63265     -25974.481     -26111.863      137.38218      6706.2184      80897.271    
     33000   292.83396     -25973.704     -26109.327      135.62286      6753.0294      80897.271    
     33100   298.87871     -25971.289     -26109.711      138.42242      6822.2744      80897.271    
     33200   303.93083     -25969.992     -26110.755      140.76225      6855.9412      80897.271    
     33300   302.63543     -25970.661     -26110.824      140.1623       6819.5202      80897.271    
     33400   294.49047     -25972.869     -26109.259      136.39005      6869.3202      80897.271    
     33500   293.85831     -25974.07      -26110.168      136.09727      6787.5662      80897.271    
     33600   297.36084     -25972.74      -26110.459      137.71943      6776.5032      80897.271    
     33700   307.64131     -25968.592     -26111.073      142.48072      6821.3987      80897.271    
     33800   296.02863     -25969.198     -26106.301      137.10243      6936.8562      80897.271    
     33900   299.18578     -25969.929     -26108.494      138.56463      6929.3542      80897.271    
     34000   294.96594     -25974.497     -26111.107      136.61026      6769.8086      80897.271    
     34100   298.20783     -25975.632     -26113.744      138.1117       6649.5187      80897.271    
     34200   298.33568     -25972.875     -26111.046      138.17092      6789.6713      80897.271    
     34300   299.59115     -25970.661     -26109.414      138.75237      6824.5608      80897.271    
     34400   302.50222     -25970.318     -26110.418      140.10061      6850.5792      80897.271    
     34500   295.89241     -25971.703     -26108.742      137.03934      6816.0446      80897.271    
     34600   304.70277     -25971.289     -26112.409      141.11977      6764.0813      80897.271    
     34700   300.69499     -25971.349     -26110.613      139.26361      6824.1292      80897.271    
     34800   302.6392      -25970.644     -26110.809      140.16404      6861.8929      80897.271    
     34900   295.75036     -25969.872     -26106.845      136.97356      7016.5041      80897.271    
     35000   303.03851     -25968.308     -26108.657      140.34898      6929.2117      80897.271    
     35100   302.70326     -25970.806     -26111          140.19371      6777.8107      80897.271    
     35200   294.95081     -25973.896     -26110.499      136.60325      6827.2752      80897.271    
     35300   298.01657     -25972.629     -26110.652      138.02313      6788.009       80897.271    
     35400   298.25353     -25970.141     -26108.273      138.13287      6904.9078      80897.271    
     35500   304.92644     -25966.793     -26108.016      141.22336      6994.9479      80897.271    
     35600   316.64854     -25963.445     -26110.098      146.65232      6901.6434      80897.271    
     35700   303.75608     -25964.155     -26104.837      140.68132      6991.7106      80897.271    
     35800   298.14435     -25969.347     -26107.43       138.08231      6952.8541      80897.271    
     35900   299.34227     -25971.461     -26110.098      138.63711      6840.3654      80897.271    
     36000   299.93202     -25972.453     -26111.363      138.91025      6836.2201      80897.271    
     36100   299.73937     -25972.833     -26111.654      138.82102      6695.5649      80897.271    
     36200   301.11939     -25971.053     -26110.513      139.46016      6814.4623      80897.271    
     36300   293.03533     -25968.599     -26104.315      135.71612      7014.0226      80897.271    
     36400   304.98025     -25967.051     -26108.3        141.24828      6933.3173      80897.271    
     36500   306.23981     -25970.723     -26112.554      141.83163      6627.7593      80897.271    
     36600   293.99675     -25974.913     -26111.074      136.16139      6751.0215      80897.271    
     36700   297.01231     -25972.786     -26110.344      137.55801      6786.5755      80897.271    
     36800   296.29016     -25969.81      -26107.034      137.22356      6935.6564      80897.271    
     36900   307.32654     -25967.655     -26109.989      142.33494      6836.6006      80897.271    
     37000   304.91614     -25968.94      -26110.158      141.21859      6784.6804      80897.271    
     37100   298.65071     -25973.597     -26111.914      138.31682      6720.9054      80897.271    
     37200   290.68958     -25976.594     -26111.224      134.62971      6647.6717      80897.271    
     37300   296.90933     -25974.145     -26111.655      137.51032      6711.1351      80897.271    
     37400   298.42664     -25971.235     -26109.448      138.21305      6796.6997      80897.271    
     37500   305.08074     -25968.701     -26109.995      141.29482      6863.3107      80897.271    
     37600   301.9168      -25968.329     -26108.159      139.82947      6896.7808      80897.271    
     37700   293.6025      -25972.004     -26107.982      135.9788       6845.5924      80897.271    
     37800   297.29689     -25974.413     -26112.103      137.68981      6697.2407      80897.271    
     37900   301.77776     -25972.777     -26112.542      139.76508      6779.2874      80897.271    
     38000   299.49821     -25970.866     -26109.576      138.70933      6790.9796      80897.271    
     38100   300.87802     -25967.98      -26107.328      139.34837      6997.5054      80897.271    
     38200   305.7597      -25967.015     -26108.625      141.60927      6962.3985      80897.271    
     38300   301.30252     -25973.834     -26113.379      139.54498      6708.2599      80897.271    
     38400   296.12809     -25974.974     -26112.122      137.1485       6742.1803      80897.271    
     38500   293.56049     -25972.925     -26108.884      135.95934      6804.2472      80897.271    
     38600   306.37969     -25968.492     -26110.388      141.89641      6814.0248      80897.271    
     38700   299.14711     -25969.017     -26107.564      138.54672      6886.8704      80897.271    
     38800   295.93025     -25970.859     -26107.916      137.05687      6868.1586      80897.271    
     38900   300.76086     -25973.318     -26112.612      139.29411      6765.0463      80897.271    
     39000   295.64956     -25976.767     -26113.694      136.92687      6616.7167      80897.271    
     39100   296.43255     -25974.627     -26111.916      137.28951      6685.2883      80897.271    
     39200   295.07026     -25971.75      -26108.409      136.65857      6846.2964      80897.271    
     39300   301.66466     -25970.419     -26110.132      139.7127       6813.1831      80897.271    
     39400   301.04861     -25969.637     -26109.065      139.42738      6866.9522      80897.271    
     39500   301.43878     -25969.973     -26109.581      139.60809      6816.2191      80897.271    
     39600   297.49509     -25973.362     -26111.143      137.78161      6696.2576      80897.271    
     39700   298.74078     -25974.556     -26112.915      138.35854      6675.6459      80897.271    
     39800   296.70346     -25971.849     -26109.264      137.41497      6811.0115      80897.271    
     39900   302.25117     -25968.275     -26108.26       139.98434      6973.1171      80897.271    
     40000   304.6409      -25967.47      -26108.561      141.09111      6909.4553      80897.271    
     40100   298.83826     -25970.178     -26108.582      138.40368      6911.3552      80897.271    
     40200   297.53826     -25973.239     -26111.04       137.8016       6769.4399      80897.271    
     40300   302.3564      -25972.708     -26112.741      140.03307      6731.9789      80897.271    
     40400   294.53628     -25971.398     -26107.81       136.41127      6882.3311      80897.271    
     40500   299.33651     -25967.699     -26106.334      138.63444      6959.3369      80897.271    
     40600   306.38909     -25967.856     -26109.757      141.90077      6947.569       80897.271    
     40700   299.7179      -25969.905     -26108.716      138.81108      6827.8389      80897.271    
     40800   301.26254     -25970.84      -26110.367      139.52646      6872.0734      80897.271    
     40900   298.48008     -25973.197     -26111.435      138.23779      6773.8223      80897.271    
     41000   293.28469     -25976.25      -26112.081      135.83161      6611.8174      80897.271    
     41100   301.66584     -25973.291     -26113.004      139.71325      6758.7109      80897.271    
     41200   301.26605     -25968.844     -26108.372      139.52809      6835.1354      80897.271    
     41300   298.92512     -25968.594     -26107.038      138.44391      6904.89        80897.271    
     41400   303.39926     -25969.537     -26110.054      140.51606      6774.9229      80897.271    
     41500   294.33388     -25973.812     -26110.13       136.31753      6779.2065      80897.271    
     41600   296.5148      -25974.837     -26112.165      137.3276       6661.8035      80897.271    
     41700   298.73368     -25973.135     -26111.49       138.35525      6746.0405      80897.271    
     41800   297.92216     -25972.329     -26110.308      137.9794       6746.3897      80897.271    
     41900   302.70248     -25970.331     -26110.525      140.19335      6900.7513      80897.271    
     42000   296.71503     -25970.154     -26107.574      137.42033      6914.0836      80897.271    
     42100   300.85713     -25970.255     -26109.593      139.3387       6842.0533      80897.271    
     42200   300.50905     -25970.816     -26109.994      139.17749      6850.1264      80897.271    
     42300   299.31286     -25972.598     -26111.221      138.62349      6790.9171      80897.271    
     42400   293.39206     -25973.843     -26109.724      135.88133      6745.9301      80897.271    
     42500   297.72473     -25971.793     -26109.681      137.88796      6814.1032      80897.271    
     42600   305.88663     -25967.862     -26109.53       141.66806      6825.6166      80897.271    
     42700   308.17202     -25967.025     -26109.751      142.72651      6872.2634      80897.271    
     42800   299.93389     -25970.452     -26109.364      138.91111      6823.2079      80897.271    
     42900   296.97453     -25971.902     -26109.442      137.54052      6918.8737      80897.271    
     43000   295.58653     -25971.95      -26108.847      136.89768      6865.6826      80897.271    
     43100   304.10131     -25969.64      -26110.481      140.84121      6747.0748      80897.271    
     43200   297.40845     -25968.513     -26106.254      137.74148      6954.4366      80897.271    
     43300   304.0935      -25967.745     -26108.582      140.83759      6979.2255      80897.271    
     43400   296.72346     -25971.562     -26108.986      137.42424      6802.1703      80897.271    
     43500   297.80077     -25973.06      -26110.983      137.92318      6793.4406      80897.271    
     43600   298.469       -25972.989     -26111.222      138.23267      6741.0339      80897.271    
     43700   300.0843      -25971.641     -26110.622      138.98077      6762.2758      80897.271    
     43800   307.55554     -25967.34      -26109.781      142.441        6912.6932      80897.271    
     43900   294.88288     -25968.79      -26105.362      136.57179      6976.6301      80897.271    
     44000   307.49572     -25969.299     -26111.712      142.41329      6791.1751      80897.271    
     44100   302.27207     -25971.381     -26111.375      139.99401      6686.2038      80897.271    
     44200   297.20283     -25971.566     -26109.212      137.64625      6805.5591      80897.271    
     44300   299.90882     -25971.194     -26110.093      138.8995       6814.1389      80897.271    
     44400   297.41459     -25970.678     -26108.422      137.74433      6862.0251      80897.271    
     44500   303.52639     -25968.557     -26109.132      140.57494      6851.2794      80897.271    
     44600   301.4047      -25968.375     -26107.968      139.5923       6925.2087      80897.271    
     44700   300.41988     -25970.552     -26109.688      139.13619      6823.5924      80897.271    
     44800   295.41298     -25973.388     -26110.205      136.8173       6791.312       80897.271    
     44900   296.53446     -25973.797     -26111.134      137.3367       6729.56        80897.271    
     45000   301.4054      -25970.991     -26110.583      139.59262      6840.0085      80897.271    
     45100   301.47288     -25967.605     -26107.229      139.62388      6913.1414      80897.271    
     45200   304.30294     -25967.922     -26108.856      140.93459      6970.1127      80897.271    
     45300   302.73635     -25970.771     -26110.98       140.20904      6826.0636      80897.271    
     45400   291.27674     -25972.991     -26107.892      134.90165      6953.2326      80897.271    
     45500   301.44597     -25971.896     -26111.508      139.61141      6859.4908      80897.271    
     45600   306.80365     -25970.554     -26112.647      142.09277      6707.629       80897.271    
     45700   298.07158     -25969.605     -26107.653      138.0486       6881.1687      80897.271    
     45800   297.38664     -25967.092     -26104.823      137.73138      7029.2008      80897.271    
     45900   306.65456     -25965.49      -26107.513      142.02372      6964.704       80897.271    
     46000   305.53574     -25969.95      -26111.456      141.50555      6746.903       80897.271    
     46100   302.1147      -25972.152     -26112.073      139.92113      6739.0789      80897.271    
     46200   295.33191     -25972.778     -26109.557      136.77975      6710.2151      80897.271    
     46300   298.25115     -25971.751     -26109.883      138.13177      6984.7188      80897.271    
     46400   302.19908     -25968.833     -26108.793      139.96021      6882.0926      80897.271    
     46500   302.66399     -25965.136     -26105.311      140.17553      7057.7121      80897.271    
     46600   310.15436     -25965.001     -26108.646      143.64461      6996.9763      80897.271    
     46700   301.36087     -25968.561     -26108.133      139.572        6901.3407      80897.271    
     46800   298.55022     -25970.431     -26108.702      138.27028      6889.0317      80897.271    
     46900   298.23113     -25972.065     -26110.187      138.1225       6835.9031      80897.271    
     47000   297.69178     -25972.835     -26110.708      137.8727       6761.0414      80897.271    
     47100   300.99523     -25972.058     -26111.461      139.40266      6778.26        80897.271    
     47200   298.0573      -25970.253     -26108.295      138.04199      6917.4958      80897.271    
     47300   300.91751     -25967.499     -26106.866      139.36666      7072.7347      80897.271    
     47400   305.06541     -25967.762     -26109.05       141.28772      6949.271       80897.271    
     47500   298.66765     -25972.229     -26110.554      138.32467      6793.9703      80897.271    
     47600   298.0002      -25973.015     -26111.031      138.01555      6867.4918      80897.271    
     47700   298.4444      -25971.967     -26110.188      138.22127      6906.7222      80897.271    
     47800   301.90891     -25969.88      -26109.706      139.82582      6858.7448      80897.271    
     47900   300.75513     -25968.631     -26107.922      139.29146      6976.0286      80897.271    
     48000   303.258       -25967.41      -26107.861      140.45064      6957.0583      80897.271    
     48100   299.00283     -25968.449     -26106.929      138.4799       6998.8971      80897.271    
     48200   301.90695     -25971.765     -26111.59       139.82491      6758.5384      80897.271    
     48300   297.10734     -25974.12      -26111.722      137.60203      6747.4551      80897.271    
     48400   293.86679     -25973.314     -26109.415      136.1012       6798.0889      80897.271    
     48500   303.8114      -25968.899     -26109.606      140.70694      6923.2732      80897.271    
     48600   299.76422     -25968.473     -26107.305      138.83253      6966.0751      80897.271    
     48700   300.87677     -25969.556     -26108.904      139.3478       6878.8466      80897.271    
     48800   301.1771      -25971.111     -26110.597      139.48689      6769.459       80897.271    
     48900   297.55269     -25973.616     -26111.424      137.80829      6736.1127      80897.271    
     49000   293.71693     -25978.654     -26114.685      136.0318       6568.2024      80897.271    
     49100   291.03351     -25978.183     -26112.972      134.789        6568.7866      80897.271    
     49200   296.23263     -25974.359     -26111.556      137.19691      6711.0904      80897.271    
     49300   301.3392      -25971.628     -26111.19       139.56197      6793.2413      80897.271    
     49400   300.77654     -25969.292     -26108.593      139.30138      6904.1373      80897.271    
     49500   302.88976     -25968.128     -26108.408      140.28009      6788.8582      80897.271    
     49600   305.90585     -25969.704     -26111.381      141.67696      6782.6522      80897.271    
     49700   294.10894     -25974.652     -26110.865      136.21335      6776.0009      80897.271    
     49800   299.03327     -25973.762     -26112.256      138.494        6743.821       80897.271    
     49900   300.91021     -25971.672     -26111.035      139.36328      6822.7934      80897.271    
     50000   299.11545     -25969.324     -26107.856      138.53206      6873.0788      80897.271    
     50100   303.78352     -25964.724     -26105.418      140.69402      6967.4502      80897.271    
     50200   307.63205     -25964.748     -26107.224      142.47643      7029.7995      80897.271    
     50300   302.40067     -25970.729     -26110.782      140.05357      6781.4846      80897.271    
     50400   298.20246     -25972.798     -26110.907      138.10922      6802.7851      80897.271    
     50500   299.06012     -25972.258     -26110.764      138.50643      6842.8494      80897.271    
     50600   293.09643     -25971.328     -26107.072      135.74442      6998.8863      80897.271    
     50700   307.05496     -25969.108     -26111.317      142.20916      6779.4597      80897.271    
     50800   306.2548      -25967.155     -26108.994      141.83857      6826.3836      80897.271    
     50900   302.89484     -25966.153     -26106.435      140.28244      7025.3309      80897.271    
     51000   296.78085     -25970.181     -26107.632      137.45082      6917.957       80897.271    
     51100   302.55464     -25972.877     -26113.002      140.12489      6691.7439      80897.271    
     51200   296.2889      -25973.727     -26110.95       137.22297      6747.6481      80897.271    
     51300   299.75686     -25971.336     -26110.165      138.82912      6814.4353      80897.271    
     51400   306.1055      -25966.806     -26108.576      141.76942      6933.9933      80897.271    
     51500   300.53079     -25965.777     -26104.964      139.18756      6957.5947      80897.271    
     51600   303.58918     -25967.164     -26107.768      140.60402      7008.6426      80897.271    
     51700   303.66176     -25969.374     -26110.012      140.63763      6704.5604      80897.271    
     51800   298.83135     -25971.499     -26109.899      138.40048      6866.3345      80897.271    
     51900   297.73547     -25973.042     -26110.935      137.89294      6727.9891      80897.271    
     52000   295.19504     -25974.594     -26111.31       136.71636      6773.4406      80897.271    
     52100   299.3641      -25972.405     -26111.052      138.64722      6757.2842      80897.271    
     52200   299.62215     -25968.999     -26107.766      138.76673      6958.1461      80897.271    
     52300   306.88993     -25967.278     -26109.411      142.13273      6855.0541      80897.271    
     52400   305.85104     -25969.053     -26110.705      141.65158      6934.8084      80897.271    
     52500   298.61041     -25973.897     -26112.195      138.29816      6642.5344      80897.271    
     52600   294.78908     -25974.218     -26110.746      136.52835      6812.8392      80897.271    
     52700   298.03839     -25971.92      -26109.953      138.03323      6780.4565      80897.271    
     52800   299.11099     -25969.728     -26108.258      138.52999      6933.4405      80897.271    
     52900   313.62248     -25967.923     -26113.174      145.25083      6789.3112      80897.271    
     53000   293.49916     -25969.695     -26105.626      135.93094      6972.4098      80897.271    
     53100   298.38951     -25969.804     -26108          138.19585      6945.6069      80897.271    
     53200   301.13235     -25970.98      -26110.446      139.46616      6852.0993      80897.271    
     53300   301.37999     -25973.452     -26113.033      139.58086      6607.5494      80897.271    
     53400   293.31755     -25976.529     -26112.376      135.84683      6556.5926      80897.271    
     53500   293.69224     -25974.345     -26110.365      136.02036      6801.6785      80897.271    
     53600   300.24941     -25969.555     -26108.612      139.05724      6812.1247      80897.271    
     53700   301.65828     -25968.67      -26108.38       139.70974      6866.6027      80897.271    
     53800   301.08473     -25969.682     -26109.126      139.44411      6842.3755      80897.271    
     53900   298.38523     -25972.958     -26111.151      138.19386      6767.7315      80897.271    
     54000   293.93898     -25975.334     -26111.469      136.13463      6688.9478      80897.271    
     54100   299.71693     -25973.338     -26112.148      138.81063      6696.2952      80897.271    
     54200   298.31608     -25968.187     -26106.349      138.16184      6872.9443      80897.271    
     54300   308.33324     -25966.686     -26109.488      142.80118      6943.7313      80897.271    
     54400   297.17429     -25970.206     -26107.839      137.63303      6938.8677      80897.271    
     54500   302.76755     -25972.014     -26112.238      140.22349      6691.7689      80897.271    
     54600   302.50602     -25972.654     -26112.757      140.10237      6693.1331      80897.271    
     54700   292.40295     -25972.404     -26107.827      135.42324      6807.0814      80897.271    
     54800   305.35672     -25966.75      -26108.172      141.42264      6999.392       80897.271    
     54900   301.53295     -25965.02      -26104.671      139.6517       7024.1416      80897.271    
     55000   308.77564     -25966.681     -26109.687      143.00607      6864.8324      80897.271    
     55100   300.51888     -25969.735     -26108.917      139.18204      6830.7802      80897.271    
     55200   301.84982     -25971.936     -26111.734      139.79845      6851.0865      80897.271    
     55300   294.01506     -25974.434     -26110.604      136.16987      6801.0464      80897.271    
     55400   299.52155     -25972.428     -26111.149      138.72014      6822.634       80897.271    
     55500   300.2734      -25970.914     -26109.983      139.06835      6766.3459      80897.271    
     55600   300.09091     -25970.059     -26109.043      138.98383      6920.1903      80897.271    
     55700   301.26632     -25969.737     -26109.266      139.52821      6771.9517      80897.271    
     55800   303.20394     -25971.82      -26112.245      140.4256       6735.8682      80897.271    
     55900   294.47232     -25975.665     -26112.047      136.38165      6684.5017      80897.271    
     56000   289.67509     -25975.018     -26109.178      134.15986      6858.9173      80897.271    
     56100   301.7144      -25971.445     -26111.18       139.73574      6775.0635      80897.271    
     56200   297.77944     -25971.435     -26109.348      137.9133       6851.4405      80897.271    
     56300   303.15567     -25970.557     -26110.961      140.40324      6785.1917      80897.271    
     56400   298.70441     -25969.727     -26108.068      138.34169      6857.7049      80897.271    
     56500   302.4042      -25967.963     -26108.018      140.05521      6947.6164      80897.271    
     56600   299.50443     -25969.059     -26107.771      138.71221      6943.358       80897.271    
     56700   303.60496     -25972.283     -26112.894      140.61133      6689.7558      80897.271    
     56800   292.05045     -25975.575     -26110.835      135.25998      6693.5583      80897.271    
     56900   297.28467     -25973.364     -26111.048      137.68416      6730.9969      80897.271    
     57000   300.08507     -25971.22      -26110.201      138.98113      6790.2024      80897.271    
     57100   299.10428     -25970.138     -26108.665      138.52689      6812.6304      80897.271    
     57200   300.98024     -25969.708     -26109.104      139.39572      6824.7601      80897.271    
     57300   301.00493     -25970.335     -26109.742      139.40715      6843.1911      80897.271    
     57400   298.59179     -25972.133     -26110.423      138.28953      6786.0654      80897.271    
     57500   292.55393     -25978.351     -26113.844      135.49316      6564.3717      80897.271    
     57600   296.49398     -25976.667     -26113.985      137.31795      6673.9216      80897.271    
     57700   292.12703     -25972.875     -26108.17       135.29545      6877.6738      80897.271    
     57800   307.98903     -25969.468     -26112.11       142.64176      6815.9606      80897.271    
     57900   295.94381     -25970.396     -26107.459      137.06315      6796.6647      80897.271    
     58000   306.2585      -25969.795     -26111.635      141.84029      6823.0473      80897.271    
     58100   296.89913     -25973.004     -26110.509      137.5056       6762.6964      80897.271    
     58200   296.66291     -25974.93      -26112.326      137.39619      6775.4907      80897.271    
     58300   290.62191     -25974.058     -26108.656      134.59837      6793.0633      80897.271    
     58400   306.25326     -25968.401     -26110.239      141.83786      6796.5288      80897.271    
     58500   307.04088     -25967.981     -26110.184      142.20264      6823.6925      80897.271    
     58600   299.83434     -25970.409     -26109.274      138.86501      6828.6371      80897.271    
     58700   294.16576     -25973.7       -26109.94       136.23967      6791.5564      80897.271    
     58800   295.09211     -25974.158     -26110.826      136.66869      6733.7457      80897.271    
     58900   301.9641      -25971.856     -26111.708      139.85138      6750.8913      80897.271    
     59000   298.24389     -25970.803     -26108.932      138.1284       6816.4503      80897.271    
     59100   298.24503     -25970.823     -26108.952      138.12894      6810.4836      80897.271    
     59200   304.69645     -25970.105     -26111.221      141.11684      6846.5291      80897.271    
     59300   293.49018     -25971.212     -26107.139      135.92678      6896.377       80897.271    
     59400   299.82074     -25970.965     -26109.824      138.85871      6782.8285      80897.271    
     59500   303.36789     -25970.601     -26111.102      140.50153      6765.108       80897.271    
     59600   299.08859     -25971.739     -26110.258      138.51962      6765.2959      80897.271    
     59700   299.60939     -25971.118     -26109.879      138.76082      6814.9925      80897.271    
     59800   298.50757     -25969.834     -26108.085      138.25053      6858.2213      80897.271    
     59900   306.67584     -25967.766     -26109.8        142.03357      6839.415       80897.271    
     60000   301.07824     -25969.474     -26108.915      139.4411       6904.0746      80897.271    
     60100   302.71596     -25972.256     -26112.456      140.1996       6688.2611      80897.271    
     60200   293.69926     -25973.27      -26109.293      136.02361      6821.5769      80897.271    
     60300   301.10822     -25970.036     -26109.491      139.45499      6914.8211      80897.271    
     60400   309.25154     -25965.106     -26108.332      143.22648      6990.9313      80897.271    
     60500   298.13431     -25966.391     -26104.468      138.07766      7031.132       80897.271    
     60600   303.68864     -25969.488     -26110.138      140.65008      6875.9756      80897.271    
     60700   303.54555     -25971.604     -26112.188      140.58381      6757.3751      80897.271    
     60800   300.94591     -25971.575     -26110.955      139.37982      6780.1437      80897.271    
     60900   300.18764     -25970.55      -26109.579      139.02863      6903.0924      80897.271    
     61000   295.9718      -25968.981     -26106.057      137.07612      7014.8043      80897.271    
     61100   308.49172     -25965.971     -26108.846      142.87458      6960.8645      80897.271    
     61200   303.50334     -25968.575     -26109.14       140.56426      6827.8958      80897.271    
     61300   300.59531     -25972.61      -26111.828      139.21744      6782.8177      80897.271    
     61400   298.23322     -25973.609     -26111.732      138.12347      6773.4981      80897.271    
     61500   294.73854     -25971.925     -26108.43       136.50494      6896.5781      80897.271    
     61600   300.46184     -25969.262     -26108.417      139.15563      6890.6302      80897.271    
     61700   303.08021     -25969.521     -26109.889      140.3683       6932.1391      80897.271    
     61800   304.8161      -25970.711     -26111.883      141.17226      6830.6652      80897.271    
     61900   290.12731     -25974.15      -26108.519      134.3693       6780.8239      80897.271    
     62000   289.11413     -25979.087     -26112.987      133.90006      6638.6352      80897.271    
     62100   299.18041     -25978.265     -26116.827      138.56215      6536.8703      80897.271    
     62200   297.06796     -25973.763     -26111.347      137.58379      6699.1904      80897.271    
     62300   299.89514     -25971.662     -26110.555      138.89317      6816.2369      80897.271    
     62400   294.31112     -25970.563     -26106.87       136.30699      6927.0794      80897.271    
     62500   306.57316     -25968.553     -26110.54       141.98602      6845.7357      80897.271    
     62600   297.96281     -25969.875     -26107.873      137.99823      6832.0406      80897.271    
     62700   299.62107     -25972.581     -26111.348      138.76623      6729.9087      80897.271    
     62800   295.14489     -25975.181     -26111.874      136.69314      6687.0591      80897.271    
     62900   294.27054     -25974.228     -26110.516      136.28819      6713.2135      80897.271    
     63000   306.93758     -25968.546     -26110.701      142.15479      6791.615       80897.271    
     63100   303.55684     -25967.592     -26108.181      140.58904      6922.6081      80897.271    
     63200   295.64665     -25969.918     -26106.844      136.92553      6955.7556      80897.271    
     63300   294.18451     -25972.908     -26109.156      136.24835      6833.3003      80897.271    
     63400   302.75756     -25972.561     -26112.779      140.21887      6796.6365      80897.271    
     63500   297.63017     -25972.051     -26109.895      137.84417      6836.1666      80897.271    
     63600   303.57712     -25968.999     -26109.598      140.59843      6883.945       80897.271    
     63700   306.70252     -25963.859     -26105.905      142.04593      7067.7223      80897.271    
     63800   302.1241      -25965.815     -26105.741      139.92549      6904.0424      80897.271    
     63900   304.80218     -25969.33      -26110.496      141.16581      6975.9319      80897.271    
     64000   297.63326     -25972.748     -26110.594      137.8456       6735.1306      80897.271    
     64100   302.95106     -25972.238     -26112.546      140.30848      6648.6778      80897.271    
     64200   297.55516     -25971.301     -26109.111      137.80943      6824.2582      80897.271    
     64300   304.90419     -25967.493     -26108.706      141.21305      6890.1019      80897.271    
     64400   306.77032     -25964.904     -26106.981      142.07733      6997.3968      80897.271    
     64500   302.69573     -25967.867     -26108.057      140.19023      6888.5675      80897.271    
     64600   300.1893      -25969.557     -26108.587      139.0294       6842.9341      80897.271    
     64700   305.84718     -25970.402     -26112.052      141.64979      6744.8022      80897.271    
     64800   297.14027     -25972.742     -26110.359      137.61728      6781.839       80897.271    
     64900   293.55678     -25972.987     -26108.944      135.95762      6841.2826      80897.271    
     65000   304.62574     -25969.506     -26110.59       141.08409      6730.3909      80897.271    
     65100   308.38954     -25966.763     -26109.591      142.82726      6964.665       80897.271    
     65200   297.81088     -25968.431     -26106.359      137.92786      6881.3963      80897.271    
     65300   297.76216     -25973.136     -26111.041      137.9053       6714.0091      80897.271    
     65400   297.31863     -25974.965     -26112.665      137.69988      6689.7248      80897.271    
     65500   296.77665     -25973.346     -26110.795      137.44887      6782.4158      80897.271    
     65600   296.23157     -25971.537     -26108.734      137.19642      6809.1055      80897.271    
     65700   299.15624     -25970.357     -26108.908      138.55095      6873.514       80897.271    
     65800   306.09921     -25969.669     -26111.435      141.76651      6726.5619      80897.271    
     65900   301.03416     -25972.531     -26111.951      139.42069      6654.3703      80897.271    
     66000   291.11906     -25976.177     -26111.006      134.82862      6774.8998      80897.271    
     66100   293.47028     -25975.143     -26111.06       135.91756      6697.3998      80897.271    
     66200   303.65319     -25970.473     -26111.107      140.63367      6839.4876      80897.271    
     66300   303.87417     -25968.754     -26109.49       140.73601      6762.385       80897.271    
     66400   300.96892     -25969.457     -26108.847      139.39047      6897.7719      80897.271    
     66500   295.58919     -25972.274     -26109.173      136.89891      6820.9634      80897.271    
     66600   293.63896     -25974.554     -26110.549      135.99569      6804.2329      80897.271    
     66700   305.02896     -25971.713     -26112.984      141.27084      6686.7535      80897.271    
     66800   303.4163      -25966.894     -26107.418      140.52395      6905.0654      80897.271    
     66900   298.65968     -25967.527     -26105.848      138.32098      6991.8983      80897.271    
     67000   299.70758     -25970.145     -26108.952      138.8063       6802.9832      80897.271    
     67100   299.74465     -25972.355     -26111.178      138.82347      6708.0461      80897.271    
     67200   301.99851     -25972.325     -26112.192      139.86732      6844.8582      80897.271    
     67300   298.30458     -25972.215     -26110.371      138.15652      6809.8171      80897.271    
     67400   301.9471      -25970.585     -26110.428      139.84351      6874.179       80897.271    
     67500   296.73415     -25970.048     -26107.477      137.42918      6912.8331      80897.271    
     67600   311.18677     -25966.744     -26110.867      144.12276      6923.0872      80897.271    
     67700   306.18627     -25962.866     -26104.673      141.80683      7068.797       80897.271    
     67800   302.74086     -25966.107     -26106.318      140.21113      7053.1236      80897.271    
     67900   296.86768     -25970.577     -26108.068      137.49103      6781.3384      80897.271    
     68000   305.20106     -25970.786     -26112.137      141.35054      6902.6205      80897.271    
     68100   296.65386     -25972.388     -26109.78       137.392        6780.1718      80897.271    
     68200   301.32006     -25972.103     -26111.656      139.5531       6808.5364      80897.271    
     68300   300.81746     -25968.706     -26108.027      139.32033      6964.9587      80897.271    
     68400   303.62243     -25966.329     -26106.949      140.61942      6931.821       80897.271    
     68500   304.18726     -25968.039     -26108.92       140.88102      6950.4299      80897.271    
     68600   295.39311     -25973.688     -26110.496      136.8081       6749.8461      80897.271    
     68700   301.0886      -25973.667     -26113.113      139.4459       6663.7397      80897.271    
     68800   298.89915     -25972.304     -26110.736      138.43188      6735.8898      80897.271    
     68900   297.20806     -25969.001     -26106.65       137.64867      6941.1782      80897.271    
     69000   307.84797     -25966.968     -26109.544      142.57643      6875.1374      80897.271    
     69100   303.13218     -25969.096     -26109.489      140.39236      6874.5434      80897.271    
     69200   296.42208     -25970.379     -26107.663      137.28465      6926.2576      80897.271    
     69300   298.61408     -25971.112     -26109.412      138.29986      6870.4242      80897.271    
     69400   300.19275     -25972.031     -26111.062      139.031        6738.5333      80897.271    
     69500   296.20917     -25971.901     -26109.087      137.18605      6802.6868      80897.271    
     69600   304.79823     -25969.95      -26111.114      141.16398      6826.0429      80897.271    
     69700   297.88726     -25969.748     -26107.711      137.96324      6809.7686      80897.271    
     69800   304.38662     -25968.602     -26109.575      140.97335      6964.1613      80897.271    
     69900   301.98214     -25969.052     -26108.911      139.85974      6805.1656      80897.271    
     70000   298.88913     -25972.79      -26111.217      138.42724      6681.8087      80897.271    
     70100   297.03772     -25974.62      -26112.189      137.56978      6710.8891      80897.271    
     70200   295.9313      -25973.282     -26110.34       137.05736      6796.0053      80897.271    
     70300   307.2769      -25968.839     -26111.151      142.31195      6772.8541      80897.271    
     70400   301.72611     -25968.093     -26107.834      139.74116      6891.2236      80897.271    
     70500   299.2729      -25968.893     -26107.498      138.60498      6866.7303      80897.271    
     70600   297.5327      -25971.44      -26109.239      137.79903      6870.2941      80897.271    
     70700   296.28133     -25973.471     -26110.69       137.21947      6750.493       80897.271    
     70800   301.74038     -25972.114     -26111.862      139.74777      6766.6926      80897.271    
     70900   301.99987     -25971.229     -26111.097      139.86795      6788.4789      80897.271    
     71000   294.52874     -25971.543     -26107.951      136.40778      6890.0704      80897.271    
     71100   309.16222     -25969.575     -26112.76       143.18511      6772.7878      80897.271    
     71200   296.65391     -25970.45      -26107.842      137.39202      6850.3213      80897.271    
     71300   299.95953     -25970.475     -26109.398      138.92298      6859.3738      80897.271    
     71400   297.25276     -25972.914     -26110.584      137.66938      6781.9443      80897.271    
     71500   298.12025     -25974.285     -26112.356      138.07114      6676.2831      80897.271    
     71600   298.8989      -25973.061     -26111.493      138.43177      6790.0346      80897.271    
     71700   300.99773     -25968.737     -26108.141      139.40382      6912.5987      80897.271    
     71800   306.33763     -25966.914     -26108.791      141.87693      6884.17        80897.271    
     71900   299.3631      -25969.072     -26107.719      138.64676      6856.329       80897.271    
     72000   303.97819     -25970.089     -26110.874      140.78419      6799.1723      80897.271    
     72100   301.80322     -25971.266     -26111.043      139.77687      6726.4059      80897.271    
     72200   296.94053     -25971.279     -26108.804      137.52477      6869.3121      80897.271    
     72300   296.36296     -25971.553     -26108.811      137.25727      6792.9894      80897.271    
     72400   303.72773     -25971.222     -26111.89       140.66819      6742.3887      80897.271    
     72500   298.84581     -25971.035     -26109.442      138.40718      6819.8844      80897.271    
     72600   308.71176     -25966.02      -26108.996      142.97649      6867.8534      80897.271    
     72700   299.89949     -25964.79      -26103.686      138.89518      7090.2775      80897.271    
     72800   302.08242     -25967.991     -26107.898      139.90618      6927.9989      80897.271    
     72900   300.79322     -25971.667     -26110.976      139.3091       6722.8597      80897.271    
     73000   299.56335     -25971.636     -26110.375      138.7395       6751.8486      80897.271    
     73100   299.45474     -25970.702     -26109.392      138.6892       6760.9548      80897.271    
     73200   300.29297     -25970.58      -26109.657      139.07742      6778.4166      80897.271    
     73300   296.9595      -25970.48      -26108.014      137.53356      6832.3867      80897.271    
     73400   302.10899     -25969.22      -26109.138      139.91848      6824.8771      80897.271    
     73500   300.29833     -25969.419     -26108.499      139.0799       6836.4757      80897.271    
     73600   302.31603     -25970.569     -26110.584      140.01437      6727.9703      80897.271    
     73700   297.7132      -25973.604     -26111.486      137.88262      6770.4005      80897.271    
     73800   294.33399     -25975.445     -26111.763      136.31758      6671.603       80897.271    
     73900   296.04519     -25972.743     -26109.853      137.1101       6709.9655      80897.271    
     74000   298.53008     -25970.683     -26108.944      138.26095      6866.6817      80897.271    
     74100   304.20062     -25970.069     -26110.956      140.8872       6754.3487      80897.271    
     74200   295.15236     -25971.027     -26107.723      136.6966       6931.8268      80897.271    
     74300   300.67155     -25970.11      -26109.363      139.25275      6820.1667      80897.271    
     74400   300.50943     -25968.991     -26108.168      139.17767      6931.2077      80897.271    
     74500   300.13375     -25969.073     -26108.077      139.00367      6873.3717      80897.271    
     74600   300.74573     -25971.289     -26110.576      139.28711      6857.517       80897.271    
     74700   296.42396     -25973.326     -26110.612      137.28552      6702.0376      80897.271    
     74800   302.44348     -25972.809     -26112.882      140.0734       6758.9995      80897.271    
     74900   292.74375     -25973.056     -26108.637      135.58108      6770.299       80897.271    
     75000   304.28684     -25968.839     -26109.766      140.92713      6854.8414      80897.271    
     75100   302.10445     -25968.365     -26108.282      139.91638      6908.7788      80897.271    
     75200   303.72552     -25970.485     -26111.152      140.66717      6789.2034      80897.271    
     75300   295.70246     -25974.321     -26111.272      136.95137      6786.4035      80897.271    
     75400   290.78267     -25974.116     -26108.789      134.67283      6823.1675      80897.271    
[...]
    181800   297.0173      -25971.533     -26109.094      137.56033      6679.9929      80897.271    
    181900   301.19211     -25974.075     -26113.569      139.49384      6656.301       80897.271    
    182000   289.70011     -25976.768     -26110.94       134.17145      6639.8257      80897.271    
    182100   298.04608     -25973.826     -26111.862      138.03679      6694.9774      80897.271    
    182200   304.61026     -25970.655     -26111.732      141.07692      6720.8165      80897.271    
    182300   301.92542     -25969.569     -26109.403      139.83347      6876.8606      80897.271    
    182400   296.6161      -25970.403     -26107.777      137.37451      6797.7286      80897.271    
    182500   300.95        -25972.012     -26111.393      139.38171      6678.0083      80897.271    
    182600   296.06071     -25975.623     -26112.741      137.11729      6655.3919      80897.271    
    182700   292.23063     -25977.447     -26112.791      135.34343      6559.6933      80897.271    
    182800   302.0647      -25972.303     -26112.201      139.89797      6710.0566      80897.271    
    182900   300.17957     -25969.117     -26108.142      139.02489      6851.2799      80897.271    
    183000   301.61071     -25969.13      -26108.818      139.68771      6905.0432      80897.271    
    183100   301.23321     -25971.459     -26110.972      139.51288      6737.7443      80897.271    
    183200   295.83493     -25973.663     -26110.675      137.01272      6762.183       80897.271    
    183300   299.17004     -25974.12      -26112.677      138.55734      6612.1515      80897.271    
    183400   297.93932     -25972.455     -26110.442      137.98735      6762.8405      80897.271    
    183500   298.86741     -25968.608     -26107.025      138.41718      6882.513       80897.271    
    183600   299.03141     -25967.71      -26106.203      138.49314      6906.792       80897.271    
    183700   302.62964     -25969.426     -26109.585      140.15962      6818.0246      80897.271    
    183800   299.50018     -25973.467     -26112.177      138.71024      6676.0401      80897.271    
    183900   297.63661     -25974.758     -26112.606      137.84715      6604.5372      80897.271    
    184000   297.51122     -25973.705     -26111.495      137.78908      6687.0542      80897.271    
    184100   293.25962     -25972.321     -26108.141      135.82         6766.8084      80897.271    
    184200   301.79947     -25969.413     -26109.188      139.77514      6723.9473      80897.271    
    184300   307.57541     -25968.891     -26111.341      142.4502       6681.4765      80897.271    
    184400   298.33501     -25971.092     -26109.263      138.17061      6818.0651      80897.271    
    184500   298.54498     -25971.428     -26109.696      138.26785      6768.2096      80897.271    
    184600   298.69573     -25971.313     -26109.651      138.33767      6818.599       80897.271    
    184700   302.1129      -25971.011     -26110.931      139.9203       6722.7528      80897.271    
    184800   295.0465      -25971.945     -26108.592      136.64757      6820.3826      80897.271    
    184900   303.40946     -25970.66      -26111.181      140.52079      6715.3985      80897.271    
    185000   300.80459     -25969.5       -26108.815      139.31437      6840.0572      80897.271    
    185100   303.36747     -25968.623     -26109.125      140.50134      6951.7278      80897.271    
    185200   299.28074     -25970.076     -26108.685      138.60861      6824.6636      80897.271    
    185300   298.9739      -25972.89      -26111.357      138.4665       6716.3251      80897.271    
    185400   293.51055     -25974.759     -26110.696      135.93621      6732.4281      80897.271    
    185500   300.78445     -25972.257     -26111.562      139.30504      6717.3195      80897.271    
    185600   300.18881     -25967.828     -26106.858      139.02917      6951.2643      80897.271    
    185700   302.15683     -25967.027     -26106.967      139.94064      6871.9535      80897.271    
    185800   302.2402      -25968.863     -26108.842      139.97925      6913.4267      80897.271    
    185900   301.91744     -25971.363     -26111.193      139.82977      6679.3224      80897.271    
    186000   297.00068     -25971.937     -26109.49       137.55263      6838.4231      80897.271    
    186100   299.25978     -25971.291     -26109.89       138.5989       6747.6939      80897.271    
    186200   303.02097     -25970.538     -26110.879      140.34086      6741.3914      80897.271    
    186300   303.83472     -25968.781     -26109.498      140.71774      6774.2874      80897.271    
    186400   299.83504     -25966.773     -26105.638      138.86533      6932.5086      80897.271    
    186500   309.53771     -25966.299     -26109.658      143.35902      6811.8211      80897.271    
    186600   300.35725     -25971.143     -26110.251      139.10719      6839.18        80897.271    
    186700   297.77418     -25973.003     -26110.914      137.91086      6755.7007      80897.271    
    186800   296.45782     -25972.626     -26109.927      137.30121      6777.1521      80897.271    
    186900   305.69194     -25969.197     -26110.775      141.57789      6795.4291      80897.271    
    187000   304.11635     -25967.122     -26107.97       140.84817      6866.983       80897.271    
    187100   300.89328     -25968.357     -26107.712      139.35544      6861.2829      80897.271    
    187200   297.80555     -25972.863     -26110.789      137.92539      6739.7833      80897.271    
    187300   294.39971     -25974.414     -26110.762      136.34801      6719.5814      80897.271    
    187400   301.09215     -25972.817     -26112.265      139.44755      6662.2652      80897.271    
    187500   304.14932     -25968.64      -26109.504      140.86344      6809.5452      80897.271    
    187600   301.95694     -25967.265     -26107.113      139.84807      7002.4736      80897.271    
    187700   297.88499     -25969.315     -26107.277      137.96219      6860.4119      80897.271    
    187800   303.47389     -25970.873     -26111.424      140.55063      6735.2444      80897.271    
    187900   297.89547     -25972.988     -26110.955      137.96704      6698.6548      80897.271    
    188000   297.66202     -25972.8       -26110.659      137.85892      6670.6182      80897.271    
    188100   300.03479     -25971.625     -26110.583      138.95784      6823.1055      80897.271    
    188200   300.12828     -25970.904     -26109.905      139.00114      6778.4314      80897.271    
    188300   301.16924     -25970.43      -26109.913      139.48325      6752.7004      80897.271    
    188400   299.11301     -25971.351     -26109.882      138.53093      6763.3313      80897.271    
    188500   301.01841     -25971.897     -26111.31       139.4134       6841.1576      80897.271    
    188600   294.79063     -25972.916     -26109.445      136.52907      6726.57        80897.271    
    188700   302.65039     -25972.048     -26112.217      140.16923      6669.9734      80897.271    
    188800   300.02623     -25969.85      -26108.804      138.95388      6811.034       80897.271    
    188900   297.48987     -25967.089     -26104.869      137.77919      7011.6747      80897.271    
    189000   304.68648     -25966.734     -26107.846      141.11222      6848.5416      80897.271    
    189100   297.36353     -25971.904     -26109.624      137.72068      6826.585       80897.271    
    189200   301.2695      -25973.004     -26112.533      139.52969      6696.8973      80897.271    
    189300   296.1475      -25972.972     -26110.129      137.15748      6737.2469      80897.271    
    189400   304.74557     -25969.22      -26110.36       141.13959      6810.5685      80897.271    
    189500   302.34539     -25969.267     -26109.295      140.02797      6800.1295      80897.271    
    189600   299.63049     -25970.025     -26108.796      138.77059      6801.7933      80897.271    
    189700   308.49284     -25969.908     -26112.784      142.8751       6720.6744      80897.271    
    189800   296.51964     -25971.515     -26108.845      137.32984      6731.2087      80897.271    
    189900   300.00761     -25971.079     -26110.025      138.94525      6793.7196      80897.271    
    190000   300.99111     -25971.07      -26110.471      139.40075      6784.32        80897.271    
    190100   299.76894     -25971.233     -26110.067      138.83472      6809.3579      80897.271    
    190200   298.76465     -25970.941     -26109.311      138.36959      6766.0382      80897.271    
    190300   308.5929      -25967.986     -26110.907      142.92144      6828.4351      80897.271    
    190400   303.96054     -25966.504     -26107.28       140.77601      6978.7958      80897.271    
    190500   298.59406     -25969.239     -26107.529      138.29058      6777.3674      80897.271    
    190600   299.73178     -25973.276     -26112.094      138.81751      6725.3349      80897.271    
    190700   296.29592     -25974.033     -26111.259      137.22623      6661.6209      80897.271    
    190800   298.27885     -25971.569     -26109.713      138.1446       6778.6779      80897.271    
    190900   298.05253     -25970.094     -26108.134      138.03978      6868.6715      80897.271    
    191000   301.77106     -25969.376     -26109.138      139.76198      6809.4457      80897.271    
    191100   304.30003     -25970.213     -26111.146      140.93324      6803.6677      80897.271    
    191200   298.41726     -25972.175     -26110.383      138.2087       6709.891       80897.271    
    191300   298.30059     -25972.163     -26110.318      138.15467      6750.8072      80897.271    
    191400   299.82705     -25971.91      -26110.772      138.86163      6677.2791      80897.271    
    191500   297.11123     -25971.032     -26108.636      137.60383      6836.9432      80897.271    
    191600   302.26029     -25968.922     -26108.91       139.98856      6779.504       80897.271    
    191700   305.94263     -25967.824     -26109.518      141.69399      6826.9756      80897.271    
    191800   299.58294     -25968.709     -26107.458      138.74857      6886.6723      80897.271    
    191900   294.82695     -25971.697     -26108.243      136.54589      6833.4147      80897.271    
    192000   300.67551     -25973.101     -26112.356      139.25458      6744.4861      80897.271    
    192100   295.0139      -25975.766     -26112.398      136.63247      6699.5865      80897.271    
    192200   299.34884     -25975.342     -26113.982      138.64015      6694.9359      80897.271    
    192300   301.54659     -25969.776     -26109.434      139.65802      6829.4378      80897.271    
    192400   297.04674     -25969.18      -26106.754      137.57396      6856.4089      80897.271    
    192500   300.45455     -25969.878     -26109.031      139.15225      6833.5403      80897.271    
    192600   301.87529     -25972.223     -26112.033      139.81025      6651.6224      80897.271    
    192700   294.61675     -25975.389     -26111.838      136.44853      6662.4433      80897.271    
    192800   300.31517     -25974.385     -26113.473      139.0877       6636.171       80897.271    
    192900   299.17271     -25968.9       -26107.458      138.55858      6880.7022      80897.271    
    193000   299.83401     -25968.611     -26107.476      138.86485      6837.3786      80897.271    
    193100   303.54697     -25969.795     -26110.38       140.58447      6718.6463      80897.271    
    193200   300.00832     -25972.416     -26111.361      138.94558      6730.5925      80897.271    
    193300   289.14581     -25976.267     -26110.182      133.91473      6718.8727      80897.271    
    193400   297.36072     -25975.199     -26112.918      137.71938      6715.4102      80897.271    
    193500   299.42272     -25969.443     -26108.117      138.67437      6897.9863      80897.271    
    193600   299.86803     -25967.972     -26106.852      138.88061      6879.4203      80897.271    
    193700   303.03537     -25968.836     -26109.184      140.34753      6965.2621      80897.271    
    193800   297.93529     -25972.441     -26110.426      137.98548      6747.2175      80897.271    
    193900   302.87404     -25973.042     -26113.315      140.27281      6728.1878      80897.271    
    194000   298.27211     -25972.463     -26110.604      138.14148      6753.7026      80897.271    
    194100   296.30271     -25971.445     -26108.674      137.22937      6841.3544      80897.271    
    194200   298.53582     -25970.249     -26108.513      138.26361      6833.389       80897.271    
    194300   305.18167     -25969.962     -26111.303      141.34157      6684.964       80897.271    
    194400   296.97097     -25972.195     -26109.734      137.53887      6754.0182      80897.271    
    194500   298.94297     -25972.697     -26111.149      138.45218      6797.2331      80897.271    
    194600   297.24129     -25972.717     -26110.381      137.66406      6768.728       80897.271    
    194700   301.62984     -25970.398     -26110.095      139.69657      6777.5918      80897.271    
    194800   305.4064      -25968.507     -26109.953      141.44564      6835.5151      80897.271    
    194900   299.14517     -25969.102     -26107.648      138.54583      6800.2129      80897.271    
    195000   300.13027     -25971.693     -26110.695      139.00206      6798.1241      80897.271    
    195100   294.59717     -25974.647     -26111.086      136.43947      6725.1384      80897.271    
    195200   302.43843     -25973.024     -26113.095      140.07106      6630.7993      80897.271    
    195300   298.15396     -25969.951     -26108.038      138.08676      6886.4564      80897.271    
    195400   298.55574     -25967.177     -26105.45       138.27284      6956.4395      80897.271    
    195500   306.2913      -25967.759     -26109.614      141.85548      6908.5452      80897.271    
    195600   304.60679     -25970.375     -26111.45       141.07531      6755.7063      80897.271    
    195700   297.56838     -25973.485     -26111.301      137.81555      6697.8874      80897.271    
    195800   295.98166     -25972.875     -26109.956      137.08068      6696.8048      80897.271    
    195900   307.48804     -25971.029     -26113.439      142.40973      6672.052       80897.271    
    196000   289.74919     -25972.291     -26106.485      134.19418      6675.8929      80897.271    
    196100   307.69155     -25970.129     -26112.633      142.50399      6771.3339      80897.271    
    196200   299.20956     -25970.549     -26109.125      138.57565      6750.7786      80897.271    
    196300   298.57509     -25969.957     -26108.239      138.2818       6840.7217      80897.271    
    196400   306.19597     -25967.788     -26109.599      141.81133      6828.42        80897.271    
    196500   306.57452     -25963.64      -26105.627      141.98665      6958.9903      80897.271    
    196600   304.32558     -25965.666     -26106.611      140.94508      6890.859       80897.271    
    196700   300.34174     -25970.39      -26109.49       139.10001      6836.5456      80897.271    
    196800   299.85491     -25972.754     -26111.629      138.87453      6716.964       80897.271    
    196900   296.15968     -25973.205     -26110.368      137.16313      6704.676       80897.271    
    197000   302.26967     -25970.006     -26109.999      139.9929       6779.0432      80897.271    
    197100   303.61448     -25967.768     -26108.384      140.61574      6863.5726      80897.271    
    197200   300.19847     -25967.699     -26106.732      139.03365      6868.1968      80897.271    
    197300   304.11308     -25970.114     -26110.96       140.84666      6739.3187      80897.271    
    197400   295.60216     -25973.229     -26110.134      136.90492      6804.5804      80897.271    
    197500   299.3482      -25972.143     -26110.783      138.63985      6773.9109      80897.271    
    197600   296.58831     -25970.948     -26108.309      137.36164      6843.3664      80897.271    
    197700   306.77505     -25967.749     -26109.829      142.07952      6762.8162      80897.271    
    197800   307.71738     -25966.803     -26109.319      142.51595      6795.946       80897.271    
    197900   297.81845     -25970.918     -26108.849      137.93137      6807.5392      80897.271    
    198000   295.21433     -25973.479     -26110.204      136.7253       6804.8186      80897.271    
    198100   299.13138     -25973.149     -26111.688      138.53944      6767.5585      80897.271    
    198200   301.96168     -25972.905     -26112.756      139.85026      6690.207       80897.271    
    198300   296.91848     -25972.284     -26109.798      137.51456      6734.134       80897.271    
    198400   301.64532     -25968.666     -26108.37       139.70374      6924.7089      80897.271    
    198500   300.56623     -25967.747     -26106.951      139.20397      6923.732       80897.271    
    198600   303.76352     -25969.153     -26109.838      140.68476      6824.7948      80897.271    
    198700   298.0121      -25970.485     -26108.506      138.02106      6793.3379      80897.271    
    198800   306.89001     -25970.082     -26112.215      142.13276      6750.3094      80897.271    
    198900   294.88612     -25972.004     -26108.577      136.57329      6817.5969      80897.271    
    199000   296.4616      -25972.154     -26109.457      137.30296      6793.0354      80897.271    
    199100   300.43443     -25970.739     -26109.882      139.14293      6839.5746      80897.271    
    199200   302.2036      -25968.572     -26108.534      139.9623       6862.7998      80897.271    
    199300   307.08374     -25966.497     -26108.719      142.22249      6950.3432      80897.271    
    199400   303.25283     -25967.995     -26108.443      140.44824      6767.3152      80897.271    
    199500   298.2347      -25971.586     -26109.71       138.12415      6701.2757      80897.271    
    199600   299.15857     -25972.341     -26110.893      138.55203      6787.038       80897.271    
    199700   295.81677     -25971.523     -26108.527      137.00431      6721.2213      80897.271    
    199800   305.61788     -25968.408     -26109.952      141.54359      6908.1         80897.271    
    199900   296.71758     -25969.95      -26107.372      137.42151      6786.3794      80897.271    
    200000   297.91227     -25973.486     -26111.461      137.97482      6803.2994      80897.271    
Loop time of 11820.9 on 20 procs for 200000 steps with 3584 atoms

Performance: 1.462 ns/day, 16.418 hours/ns, 16.919 timesteps/s, 60.639 katom-step/s
99.9% CPU use with 20 MPI tasks x 1 OpenMP threads

MPI task timing breakdown:
Section |  min time  |  avg time  |  max time  |%varavg| %total
---------------------------------------------------------------
Pair    | 9567.6     | 10720      | 11525      | 688.1 | 90.69
Neigh   | 114.23     | 130.9      | 143.58     |  83.7 |  1.11
Comm    | 92.549     | 916.91     | 2126.4     |2441.9 |  7.76
Output  | 0.32134    | 0.36701    | 0.42544    |   4.6 |  0.00
Modify  | 7.8425     | 51.602     | 82.161     | 346.6 |  0.44
Other   |            | 0.8926     |            |       |  0.01

Nlocal:          179.2 ave         192 max         160 min
Histogram: 4 0 0 2 2 2 2 0 0 8
Nghost:         1120.8 ave        1212 max        1082 min
Histogram: 8 1 7 0 0 0 0 0 0 4
Neighs:              0 ave           0 max           0 min
Histogram: 20 0 0 0 0 0 0 0 0 0
FullNghs:      10232.1 ave       10997 max        9085 min
Histogram: 4 0 0 3 1 1 3 0 0 8

Total # of neighbors = 204642
Ave neighs/atom = 57.098772
Neighbor list builds = 200000
Dangerous builds not checked
Total wall time: 3:17:01
