ITEM: TIMESTEP
0
ITEM: NUMBER OF ATOMS
81
ITEM: BOX BOUNDS pp pp pp
0.0000000000000000e+00 9.3128449799999995e+00
0.0000000000000000e+00 9.3128449799999995e+00
0.0000000000000000e+00 9.3128449799999995e+00
ITEM: ATOMS id type x y z fx fy fz
   1 2    8.7913203200000005    9.1948438600000006    0.4691661100000000    0.9154755266034074   -1.5999236453846208   -0.2745116239080267
   2 1    1.5306581100000001    0.1906215000000000    1.7184308600000000   -0.0839051277929597    0.8598184446435349   -0.2042134073946530
   3 1    1.1111836100000001    8.4495883799999998    0.8421800400000000    0.2444719068748309    1.2653583495844660   -2.0957997755157733
   4 2    1.1286312000000001    6.2261590599999996    4.3710943699999998    0.1764359530374663   -0.5627245718830631    0.9310975903149629
   5 1    7.8732818399999998    8.0152736699999991    8.6301341300000001    1.1839511217843834    0.6954962042750149    2.1594576607945228
   6 1    0.8762118300000000    0.3628735400000000    3.8226389300000001    0.8068882410642064   -0.5330910752320526   -0.3956008103758804
   7 2    0.9124107299999999    7.7938238599999998    5.5943438700000003    0.4254237432628052    0.8170598053418723    1.1504179703110604
   8 1    8.3598094799999991    8.0829661099999992    7.8653076100000003    1.6745377011589384    1.1566919531569282   -1.2234394218427354
   9 1    7.1191360200000000    8.2912872600000007    8.2212375699999996   -3.0042145397585971    1.5708798225115164   -2.1127416973628281
  10 2    7.3036084099999998    1.4541892599999999    0.6271050200000000   -4.1317526371635518   -4.6773479920182748   -0.0597014724195185
  11 1    2.2903717499999998    6.5819331600000002    0.0179259100000000   -0.5660941320084671    1.6345825474490063   -0.6558477026056098
  12 1    2.9980225100000002    6.6054770700000001    4.2722961000000002   -1.1604165688167889   -0.3998578335833758    1.0809810398833486
  13 2    2.3172873599999999    4.2674346300000003    3.9869526600000000    0.3844717134414926    0.7649962899524492   -0.7830699947152089
  14 1    1.0306776000000000    0.0789974700000000    6.6873353499999997   -0.8658892499018092    0.1376096554442119    4.1034301466659935
  15 1    0.6655282600000000    3.9068568899999998    3.2292204199999999    1.6828063677684117   -0.2982590488495260   -0.6823893751189403
  16 2    8.8297694300000007    3.5562456500000001    5.1572126100000002    2.2986296925358412    1.5838229529108494   -1.7448520986411644
  17 1    8.3010594300000005    2.7328361499999998    5.5770424600000004   -0.9448840753912031   -1.8039701757759523   -0.1359421851644436
  18 1    0.4518731400000000    4.2263601199999998    5.0076743700000002    1.3249612916307023    0.8299276578064478   -0.7618459790815665
  19 2    1.5149787800000001    0.5395472200000000    0.5844112000000000   -0.1957076726255703   -0.4194036691723883    0.0851500380287058
  20 1    0.2382011100000000    5.7755862300000000    3.2313093199999998    0.5202062762489615    0.0355870378286898    2.0379951232607798
  21 1    0.6072947900000000    8.0086483200000007    9.0009410800000005    0.0717137270379147    0.8573945727755605   -0.6547832602445132
  22 2    0.7950699400000000    8.5305762099999995    3.4540600800000001    2.5651269823344722    2.1926958980736893   -1.6794746254153878
  23 1    1.5112520400000000    1.8241274400000000    0.3818151500000000   -0.8755266230899974   -2.3225127376500883    1.2307271398326576
  24 1    9.2568782699999996    8.1623385600000002    3.9084699899999999   -1.6561016976785348   -1.1292803072957658    1.3355764180566470
  25 2    8.6179202299999993    5.3386246300000000    4.0126903799999996    2.2932977673032235    1.5471022944416413   -0.4994685407581646
  26 1    0.6931919600000001    8.3129026300000000    6.6618908899999996    1.6583613516686329   -0.7688968175443371   -0.8278374591970852
  27 1    8.9016410599999993    6.4540809100000001    4.0329888100000000    1.6376313519654908   -0.4056970561786373    1.3764664363143309
  28 2    1.7273507600000000    7.8610470200000000    9.1664366699999995   -0.3833611410004988   -0.2847779861814297    0.1436357492987105
  29 1    4.1083136500000004    5.8861748199999999    8.3309579700000000    0.1702909136441926    1.4550220065898309   -1.4667451383688945
  30 1    2.2141501099999998    1.2205316300000000    3.5968805499999998    0.8720153767353926    0.2008753350032760    0.5670424099839337
  31 2    3.2749434399999999    0.4550605900000000    5.2801660999999998    6.6379765427609314    4.1929632012594480    1.7867362847507484
  32 1    4.1404646300000003    9.0294637000000009    5.9042176900000003   -1.5603265149675138   -0.2439965618415105   -0.8112400462940110
  33 1    1.9316739500000000    2.4531350199999999    5.3889794799999997    1.8558663929484578    0.1857653257425283   -0.9054087704153544
  34 2    2.6219986799999999    9.0808926999999997    5.1141439300000000   -4.9032788602454467   -6.8184033804964219   -0.4048435020519769
  35 1    2.7271321899999998    0.6648184499999999    0.2990508700000000   -2.0535552339493690   -1.0592535483860024    0.2419794743779682
  36 1    0.8155769500000000    3.1004008999999999    3.6876864700000000    1.3840742496349767   -1.4571787976792399    0.6936444066756657
  37 2    2.9839604899999999    3.6481906600000000    0.5833732900000000   -0.5942069893414348   -2.0344122958809518   -0.3000268907752571
  38 1    3.2651808899999999    2.8598304899999998    8.9436361499999997   -0.5156888462481030    1.4645641568924446    0.3955353162571265
  39 1    2.2895262800000000    2.7561112600000000    1.1150633999999999    0.4145608285209966    0.8940934223891914    0.9157210338313728
  40 2    1.3543551100000000    2.7038525600000001    2.7703724400000000   -0.9716072280438737    1.0392526793748842    1.3047549805181375
  41 1    3.2758080299999999    5.4167011000000000    3.1531168100000002   -1.5866888198676861   -1.5411960471414659    1.6648268701335436
  42 1    3.0071557499999999    4.2755104599999996    2.6928141399999999   -0.8377342119233365   -0.6394238857122874    2.1653766027058805
  43 2    3.1124263499999998    2.7736486800000000    5.2087604799999996   -0.7421629552264375    0.2093623337212397    0.9263965383785199
  44 1    2.8835342499999999    3.6568588800000001    6.1494261600000000    0.0239262591207962   -0.7280673246876262   -2.6253202037104231
  45 1    4.1370520900000001    2.8340505299999998    5.7052082300000002   -0.9145529263126241    0.2440511102150066   -0.4690033077250417
  46 2    3.1528361000000000    7.2531724000000004    8.0661434399999994   -2.5431796471756596   -0.7461881612607022   -2.7505926775375515
  47 1    4.6531275299999999    5.4072366299999999    7.3574626900000002    0.8606842563698009    2.3528129793606842   -0.0700724875779734
  48 1    2.1492414300000000    5.5440283199999998    6.7497863799999998    0.9244134195425544    1.0142023493550785   -0.3928440603007993
  49 2    1.9988942500000000    5.4196067100000000    4.1614834299999997    1.4198839767973570    0.9633215768784182    1.4113218307873503
  50 1    1.7938203300000000    7.8235976200000001    4.7883582799999997   -0.2041249475326930   -0.0489794554609963    0.8203464085209613
  51 1    2.3874503900000001    6.0964213899999997    5.2032382600000000   -2.2025413300147543   -0.3763167186583647   -1.6659083706144242
  52 2    3.0683364300000000    6.2951500700000000    7.0998002299999996   -1.3596015010034166    1.7753334757331907    0.1656432190158593
  53 1    5.8250059500000004    8.1255501500000005    6.6426651200000002   -0.9886113516466726   -1.1328877230574959    0.6792212203477281
  54 1    3.7304576100000002    1.8924918399999999    4.5910386200000000   -1.9522857471632133    0.2878882335327316    0.1288966971283376
  55 2    6.3186349899999996    1.0009390700000000    7.5520956100000003    3.7328096742534993  -13.5397386577809336    2.1706293203710660
  56 1    4.7686443199999999    1.0089957000000001    6.4919105699999999    1.0770250906116927   -0.1063129762232576    0.1387959581665248
  57 1    6.0501108199999996    1.5013780200000000    5.3329036399999996   -0.2192877422291252   -0.8669795539566465    1.0704457963812690
  58 2    5.5016765000000003    8.3921398499999995    3.7152759500000001   -0.1024293461390095   -2.5708838488436578   -0.6203276246135764
  59 1    5.9485308600000000    6.9507324300000004    4.0884349699999998    0.1060249937244877    1.0373988038812414    1.5567476764054313
  60 1    8.9846733200000006    7.9659621899999999    0.3028361200000000    0.5456780492622196    2.6545953040677297    0.4296156763495099
  61 2    6.2608846800000002    0.6950523199999999    6.1814194699999998   -2.8940381473984669    2.4812042623820769    3.5609023654581393
  62 1    0.2217707700000000    1.3274722900000000    1.3958917700000000   -0.1394959245483044   -0.6486108351146672   -0.3990359152480094
  63 1    5.4461208799999996    0.6058889500000000    5.2840524100000001    0.5268744601820426   -0.7965217432915345    0.7969688867802389
  64 2    8.1288586899999995    1.9992790600000001    0.6774549399999999    6.5034259043245095    1.7857410021832778    0.4795644149992880
  65 1    5.9813889400000004    2.4072720599999999    1.2507938500000000   -0.0811242228824069   -0.6570318795661960    0.3575038025660691
  66 1    6.5302294500000002    0.4436487700000000    8.6818947400000006   -0.3083524295033833    0.2439049940114200   -2.1387235952825714
  67 2    6.0861736000000004    2.5336096600000002    2.4812934100000001   -3.5179283898957143   -0.3301700184189674    2.0761549674447397
  68 1    7.0601143899999999    2.4876800499999998    2.0713537899999999    2.9640855557799863   -0.6679632118197678   -0.2415764246817441
  69 1    5.5180294500000002    2.6115920699999999    3.6252849299999999   -0.3966793496769868   -1.0055296117447714   -0.1981540742920513
  70 2    6.0492163999999997    1.7566589200000000    7.2232783999999999   -4.4818508982172656    7.4342422709165090   -8.3050304631074763
  71 1    7.3977045600000002    7.9130409799999999    6.8654890699999997   -0.0738519827370169    0.4771665478398489   -0.1671109974361422
  72 1    6.1506078300000002    8.1209803199999993    5.4537327700000002   -0.9181031901630786    0.3871184775968614    0.4731254074886937
  73 2    5.5315462300000000    6.2925567800000000    7.9110031500000000   -2.2344053690696408   -1.1617018889842454   -0.3810282552111457
  74 1    1.3694672699999999    9.2209129700000005    5.9445255100000001    3.3363098881840401   -2.8428500626939193   -4.7484765308704562
  75 1    5.2903223099999996    4.8934473499999998    6.6039539700000001   -0.3177273181892899   -0.0277606403677150   -1.0577265697794198
  76 2    5.7018939800000004    7.0369793600000001    3.0131860800000001    0.4312558302559175    2.4852157487326556    2.1980577025571058
  77 1    5.0833132499999998    8.5876857500000003    2.5136245399999999   -0.0135545758752378    1.2585602470432631    2.7896468744874507
  78 1    6.7042969699999997    6.3990328099999996    3.2431412800000001   -1.4265122258864453    0.7657768192907500    1.0356315544366723
  79 2    6.2115919000000002    6.9485608499999998    7.3164332900000000    1.2991870574347084    5.5216334079470712   -3.5458016105450803
  80 1    0.0340631000000000    7.9560125399999997    7.3928766100000001   -0.1670652295615170   -0.2743644026388844   -0.8110691757636233
  81 1    6.6665517200000002    7.7679117900000003    6.2277864000000003    0.1396474820533606   -1.2326234096787929    0.6314171118974538
