LAMMPS (2 Aug 2023 - Development - patch_2Aug2023-219-g06e2d5d306)
Reading data file ...
  orthogonal box = (0 0 0) to (9.312845 9.312845 9.312845)
  1 by 1 by 2 MPI processor grid
  reading atoms ...
  81 atoms
  read_data CPU = 0.002 seconds
WARNING: No fixes with time integration, atoms won't move (src/verlet.cpp:60)
Neighbor list info ...
  update: every = 1 steps, delay = 0 steps, check = yes
  max neighbors/atom: 2000, page size: 100000
  master list distance cutoff = 6
  ghost atom cutoff = 6
  binsize = 3, bins = 4 4 4
  1 neighbor lists, perpetual/occasional/extra = 1 0 0
  (1) pair quip, perpetual
      attributes: full, newton on
      pair build: full/bin/atomonly
      stencil: full/bin/3d
      bin: standard
Setting up Verlet run ...
  Unit style    : metal
  Current step  : 0
  Time step     : 0.001
Per MPI rank memory allocation (min/avg/max) = 3.098 | 3.099 | 3.099 Mbytes
   Step          Temp          E_pair         E_mol          TotEng         Press     
         0   0              30.85513       0              30.85513      -468884.78    
Loop time of 5.83e-07 on 2 procs for 0 steps with 81 atoms

171.5% CPU use with 2 MPI tasks x no OpenMP threads

MPI task timing breakdown:
Section |  min time  |  avg time  |  max time  |%varavg| %total
---------------------------------------------------------------
Pair    | 0          | 0          | 0          |   0.0 |  0.00
Neigh   | 0          | 0          | 0          |   0.0 |  0.00
Comm    | 0          | 0          | 0          |   0.0 |  0.00
Output  | 0          | 0          | 0          |   0.0 |  0.00
Modify  | 0          | 0          | 0          |   0.0 |  0.00
Other   |            | 5.83e-07   |            |       |100.00

Nlocal:           40.5 ave          42 max          39 min
Histogram: 1 0 0 0 0 0 0 0 0 1
Nghost:          661.5 ave         679 max         644 min
Histogram: 1 0 0 0 0 0 0 0 0 1
Neighs:              0 ave           0 max           0 min
Histogram: 2 0 0 0 0 0 0 0 0 0
FullNghs:         3624 ave        3780 max        3468 min
Histogram: 1 0 0 0 0 0 0 0 0 1

Total # of neighbors = 7248
Ave neighs/atom = 89.481481
Neighbor list builds = 0
Dangerous builds = 0
Total wall time: 0:00:00
