ITEM: TIMESTEP
0
ITEM: NUMBER OF ATOMS
81
ITEM: BOX BOUNDS pp pp pp
0.0000000000000000e+00 9.3128449799999995e+00
0.0000000000000000e+00 9.3128449799999995e+00
0.0000000000000000e+00 9.3128449799999995e+00
ITEM: ATOMS id type x y z fx fy fz
   1 2    8.7913203200000005    9.1948438600000006    0.4691661100000000    0.9154755264676122   -1.5999236450797234   -0.2745116238658950
   2 1    1.5306581100000001    0.1906215000000000    1.7184308600000000   -0.0839051277013999    0.8598184446376531   -0.2042134067796761
   3 1    1.1111836100000001    8.4495883799999998    0.8421800400000000    0.2444719069287908    1.2653583499201499   -2.0957997754168862
   4 2    1.1286312000000001    6.2261590599999996    4.3710943699999998    0.1764359529763161   -0.5627245713415183    0.9310975903629983
   5 1    7.8732818399999998    8.0152736699999991    8.6301341300000001    1.1839511216448770    0.6954962042874082    2.1594576606824005
   6 1    0.8762118300000000    0.3628735400000000    3.8226389300000001    0.8068882407167122   -0.5330910758083482   -0.3956008097924759
   7 2    0.9124107299999999    7.7938238599999998    5.5943438700000003    0.4254237434657568    0.8170598053834780    1.1504179699537120
   8 1    8.3598094799999991    8.0829661099999992    7.8653076100000003    1.6745377013307552    1.1566919529820860   -1.2234394221393703
   9 1    7.1191360200000000    8.2912872600000007    8.2212375699999996   -3.0042145397842459    1.5708798224517937   -2.1127416970184054
  10 2    7.3036084099999998    1.4541892599999999    0.6271050200000000   -4.1317526374819522   -4.6773479919626277   -0.0597014722977521
  11 1    2.2903717499999998    6.5819331600000002    0.0179259100000000   -0.5660941319791761    1.6345825478835643   -0.6558477029315503
  12 1    2.9980225100000002    6.6054770700000001    4.2722961000000002   -1.1604165697695503   -0.3998578337917533    1.0809810408651563
  13 2    2.3172873599999999    4.2674346300000003    3.9869526600000000    0.3844717132183096    0.7649962901330462   -0.7830699947860776
  14 1    1.0306776000000000    0.0789974700000000    6.6873353499999997   -0.8658892494948116    0.1376096557851018    4.1034301464844516
  15 1    0.6655282600000000    3.9068568899999998    3.2292204199999999    1.6828063683965730   -0.2982590485987726   -0.6823893748078740
  16 2    8.8297694300000007    3.5562456500000001    5.1572126100000002    2.2986296929078756    1.5838229533686501   -1.7448520987997680
  17 1    8.3010594300000005    2.7328361499999998    5.5770424600000004   -0.9448840750543407   -1.8039701760018456   -0.1359421858167943
  18 1    0.4518731400000000    4.2263601199999998    5.0076743700000002    1.3249612916625058    0.8299276582093240   -0.7618459790376280
  19 2    1.5149787800000001    0.5395472200000000    0.5844112000000000   -0.1957076722488923   -0.4194036691832642    0.0851500377578137
  20 1    0.2382011100000000    5.7755862300000000    3.2313093199999998    0.5202062762306880    0.0355870380868191    2.0379951233148073
  21 1    0.6072947900000000    8.0086483200000007    9.0009410800000005    0.0717137272018424    0.8573945726323813   -0.6547832598273269
  22 2    0.7950699400000000    8.5305762099999995    3.4540600800000001    2.5651269824778415    2.1926958976658479   -1.6794746259057807
  23 1    1.5112520400000000    1.8241274400000000    0.3818151500000000   -0.8755266233799495   -2.3225127376616133    1.2307271398275197
  24 1    9.2568782699999996    8.1623385600000002    3.9084699899999999   -1.6561016977084237   -1.1292803071897599    1.3355764178511387
  25 2    8.6179202299999993    5.3386246300000000    4.0126903799999996    2.2932977676626058    1.5471022944905033   -0.4994685406342004
  26 1    0.6931919600000001    8.3129026300000000    6.6618908899999996    1.6583613522744320   -0.7688968172761214   -0.8278374588015471
  27 1    8.9016410599999993    6.4540809100000001    4.0329888100000000    1.6376313517834908   -0.4056970564031335    1.3764664362253252
  28 2    1.7273507600000000    7.8610470200000000    9.1664366699999995   -0.3833611411536818   -0.2847779859372367    0.1436357501069385
  29 1    4.1083136500000004    5.8861748199999999    8.3309579700000000    0.1702909138186051    1.4550220066734969   -1.4667451387415360
  30 1    2.2141501099999998    1.2205316300000000    3.5968805499999998    0.8720153765579772    0.2008753347087164    0.5670424099436713
  31 2    3.2749434399999999    0.4550605900000000    5.2801660999999998    6.6379765430853483    4.1929632013348970    1.7867362849410182
  32 1    4.1404646300000003    9.0294637000000009    5.9042176900000003   -1.5603265149150896   -0.2439965621847791   -0.8112400461344387
  33 1    1.9316739500000000    2.4531350199999999    5.3889794799999997    1.8558663928146935    0.1857653260815963   -0.9054087704110394
  34 2    2.6219986799999999    9.0808926999999997    5.1141439300000000   -4.9032788603320654   -6.8184033800860275   -0.4048435026493186
  35 1    2.7271321899999998    0.6648184499999999    0.2990508700000000   -2.0535552338496803   -1.0592535483352923    0.2419794740691604
  36 1    0.8155769500000000    3.1004008999999999    3.6876864700000000    1.3840742494550422   -1.4571787978714623    0.6936444057346688
  37 2    2.9839604899999999    3.6481906600000000    0.5833732900000000   -0.5942069894297834   -2.0344122960728241   -0.3000268908032282
  38 1    3.2651808899999999    2.8598304899999998    8.9436361499999997   -0.5156888461702679    1.4645641567966945    0.3955353157699057
  39 1    2.2895262800000000    2.7561112600000000    1.1150633999999999    0.4145608281448143    0.8940934221879763    0.9157210335059037
  40 2    1.3543551100000000    2.7038525600000001    2.7703724400000000   -0.9716072283623989    1.0392526788356149    1.3047549806708063
  41 1    3.2758080299999999    5.4167011000000000    3.1531168100000002   -1.5866888198088283   -1.5411960470292694    1.6648268707323772
  42 1    3.0071557499999999    4.2755104599999996    2.6928141399999999   -0.8377342112013045   -0.6394238865953492    2.1653766028963135
  43 2    3.1124263499999998    2.7736486800000000    5.2087604799999996   -0.7421629540651549    0.2093623333043786    0.9263965393974155
  44 1    2.8835342499999999    3.6568588800000001    6.1494261600000000    0.0239262587592198   -0.7280673243025286   -2.6253202042898343
  45 1    4.1370520900000001    2.8340505299999998    5.7052082300000002   -0.9145529260273181    0.2440511099226347   -0.4690033076581824
  46 2    3.1528361000000000    7.2531724000000004    8.0661434399999994   -2.5431796471045129   -0.7461881610740003   -2.7505926781735472
  47 1    4.6531275299999999    5.4072366299999999    7.3574626900000002    0.8606842562079869    2.3528129795697290   -0.0700724885152560
  48 1    2.1492414300000000    5.5440283199999998    6.7497863799999998    0.9244134197410006    1.0142023490541210   -0.3928440608931218
  49 2    1.9988942500000000    5.4196067100000000    4.1614834299999997    1.4198839768079261    0.9633215769177883    1.4113218310783726
  50 1    1.7938203300000000    7.8235976200000001    4.7883582799999997   -0.2041249478342308   -0.0489794559840162    0.8203464084592933
  51 1    2.3874503900000001    6.0964213899999997    5.2032382600000000   -2.2025413296222207   -0.3763167191129282   -1.6659083705308235
  52 2    3.0683364300000000    6.2951500700000000    7.0998002299999996   -1.3596015012577012    1.7753334757449217    0.1656432188240421
  53 1    5.8250059500000004    8.1255501500000005    6.6426651200000002   -0.9886113515025654   -1.1328877230315995    0.6792212199102720
  54 1    3.7304576100000002    1.8924918399999999    4.5910386200000000   -1.9522857475406024    0.2878882341836040    0.1288966971601958
  55 2    6.3186349899999996    1.0009390700000000    7.5520956100000003    3.7328096738975072  -13.5397386574893943    2.1706293203554030
  56 1    4.7686443199999999    1.0089957000000001    6.4919105699999999    1.0770250898839995   -0.1063129760544860    0.1387959582076936
  57 1    6.0501108199999996    1.5013780200000000    5.3329036399999996   -0.2192877422179099   -0.8669795539672154    1.0704457961320699
  58 2    5.5016765000000003    8.3921398499999995    3.7152759500000001   -0.1024293463971975   -2.5708838483099057   -0.6203276244511969
  59 1    5.9485308600000000    6.9507324300000004    4.0884349699999998    0.1060249938646328    1.0373988039519757    1.5567476766423667
  60 1    8.9846733200000006    7.9659621899999999    0.3028361200000000    0.5456780493763894    2.6545953037500807    0.4296156767554431
  61 2    6.2608846800000002    0.6950523199999999    6.1814194699999998   -2.8940381476741992    2.4812042625601860    3.5609023652666005
  62 1    0.2217707700000000    1.3274722900000000    1.3958917700000000   -0.1394959245326820   -0.6486108350952653   -0.3990359148786314
  63 1    5.4461208799999996    0.6058889500000000    5.2840524100000001    0.5268744603961779   -0.7965217437323164    0.7969688867610609
  64 2    8.1288586899999995    1.9992790600000001    0.6774549399999999    6.5034259041978659    1.7857410019567856    0.4795644147326944
  65 1    5.9813889400000004    2.4072720599999999    1.2507938500000000   -0.0811242235079597   -0.6570318791479454    0.3575038028498786
  66 1    6.5302294500000002    0.4436487700000000    8.6818947400000006   -0.3083524294134747    0.2439049943239198   -2.1387235952666499
  67 2    6.0861736000000004    2.5336096600000002    2.4812934100000001   -3.5179283903182403   -0.3301700184449632    2.0761549676260627
  68 1    7.0601143899999999    2.4876800499999998    2.0713537899999999    2.9640855557015406   -0.6679632120994685   -0.2415764237562991
  69 1    5.5180294500000002    2.6115920699999999    3.6252849299999999   -0.3966793499960203   -1.0055296120445103   -0.1981540746004768
  70 2    6.0492163999999997    1.7566589200000000    7.2232783999999999   -4.4818508986978935    7.4342422707036944   -8.3050304634551093
  71 1    7.3977045600000002    7.9130409799999999    6.8654890699999997   -0.0738519827577355    0.4771665475994796   -0.1671109977324512
  72 1    6.1506078300000002    8.1209803199999993    5.4537327700000002   -0.9181031901724641    0.3871184779065275    0.4731254076786735
  73 2    5.5315462300000000    6.2925567800000000    7.9110031500000000   -2.2344053690989050   -1.1617018889054693   -0.3810282552343629
  74 1    1.3694672699999999    9.2209129700000005    5.9445255100000001    3.3363098881103306   -2.8428500626549682   -4.7484765304165162
  75 1    5.2903223099999996    4.8934473499999998    6.6039539700000001   -0.3177273182184691   -0.0277606405058252   -1.0577265690709878
  76 2    5.7018939800000004    7.0369793600000001    3.0131860800000001    0.4312558306774890    2.4852157489365103    2.1980577030198885
  77 1    5.0833132499999998    8.5876857500000003    2.5136245399999999   -0.0135545751090988    1.2585602468358903    2.7896468739230880
  78 1    6.7042969699999997    6.3990328099999996    3.2431412800000001   -1.4265122258264935    0.7657768191111355    1.0356315543535783
  79 2    6.2115919000000002    6.9485608499999998    7.3164332900000000    1.2991870574666917    5.5216334077667755   -3.5458016105848058
  80 1    0.0340631000000000    7.9560125399999997    7.3928766100000001   -0.1670652296831719   -0.2743644027019811   -0.8110691754836765
  81 1    6.6665517200000002    7.7679117900000003    6.2277864000000003    0.1396474820898425   -1.2326234095674271    0.6314171115603234
