LAMMPS (27 Jun 2024)
OMP_NUM_THREADS environment is not set. Defaulting to 1 thread. (src/comm.cpp:98)
  using 1 OpenMP thread(s) per MPI task
Reading data file ...
  orthogonal box = (0 0 0) to (22.422218 22.19224 20.321894)
  5 by 2 by 2 MPI processor grid
  reading atoms ...
  448 atoms
  read_data CPU = 0.004 seconds
**************** Begin of POD Potentials ****************
species: Hf 
periodic boundary conditions: 1 1 1
number of environment clusters: 8
number of principal compoments: 2
inner cut-off radius: 1
outer cut-off radius: 5
cut-off function type: 1
gaussian_exponents: 
polynomial_degrees: 
bessel polynomial degree: 4
inverse polynomial degree: 10
one-body potential: 1
two-body radial basis functions: 8
three-body radial basis functions: 8
three-body angular degree: 6
four-body radial basis functions: 7
four-body angular degree: 5
five-body radial basis functions: 0
five-body angular degree: 0
six-body radial basis functions: 0
six-body angular degree: 0
seven-body radial basis functions: 0
seven-body angular degree: 0
number of local descriptors per element for one-body potential: 1
number of local descriptors per element for two-body potential: 8
number of local descriptors per element for three-body potential: 56
number of local descriptors per element for four-body potential: 112
number of local descriptors per element for five-body potential: 0
number of local descriptors per element for six-body potential: 0
number of local descriptors per element for seven-body potential: 0
number of local descriptors per element for all potentials: 177
number of global descriptors: 1409
**************** End of POD Potentials ****************

**************** Begin of Model Coefficients ****************
total number of coefficients for POD potential: 1409
total number of elements for PCA projection matrix: 352
total number of elements for PCA centroids: 16
**************** End of Model Coefficients ****************


CITE-CITE-CITE-CITE-CITE-CITE-CITE-CITE-CITE-CITE-CITE-CITE-CITE

Your simulation uses code contributions which should be cited:
- Type Label Framework: https://doi.org/10.1021/acs.jpcb.3c08419
The log file lists these citations in BibTeX format.

CITE-CITE-CITE-CITE-CITE-CITE-CITE-CITE-CITE-CITE-CITE-CITE-CITE

Neighbor list info ...
  update: every = 1 steps, delay = 0 steps, check = no
  max neighbors/atom: 2000, page size: 100000
  master list distance cutoff = 7
  ghost atom cutoff = 7
  binsize = 3.5, bins = 7 7 6
  1 neighbor lists, perpetual/occasional/extra = 1 0 0
  (1) pair pod, perpetual
      attributes: full, newton on
      pair build: full/bin/atomonly
      stencil: full/bin/3d
      bin: standard
Setting up Verlet run ...
  Unit style    : metal
  Current step  : 0
  Time step     : 0.001
Per MPI rank memory allocation (min/avg/max) = 2.586 | 2.586 | 2.586 Mbytes
   Step          Temp          TotEng         PotEng         KinEng         Press          Volume    
         0   300           -3263.9145     -3281.2483      17.333785      1830.9177      10112.159    
       100   99.615214     -3263.0211     -3268.7768      5.7556958      3704.7099      10112.159    
       200   153.2171      -3259.7927     -3268.6455      8.8527742      4673.595       10112.159    
       300   211.05798     -3255.8681     -3268.0629      12.194779      4870.5546      10112.159    
       400   286.5168      -3251.8519     -3268.4066      16.554736      4855.7482      10112.159    
       500   326.11284     -3247.9501     -3266.7926      18.842566      5793.7489      10112.159    
       600   282.8719      -3245.3692     -3261.7134      16.344136      7423.1647      10112.159    
       700   299.19623     -3243.9331     -3261.2205      17.287344      8052.2331      10112.159    
       800   310.01671     -3245.1599     -3263.0724      17.912544      7016.0741      10112.159    
       900   293.98503     -3247.1154     -3264.1016      16.986245      6598.4907      10112.159    
      1000   306.32057     -3248.0806     -3265.7796      17.698983      5958.7099      10112.159    
      1100   295.47919     -3247.8277     -3264.9003      17.072576      6455.1957      10112.159    
      1200   280.13536     -3246.4771     -3262.6632      16.186021      7046.5473      10112.159    
      1300   302.92695     -3245.3011     -3262.804       17.502902      7070.8435      10112.159    
      1400   303.39293     -3245.3764     -3262.9063      17.529827      6913.9738      10112.159    
      1500   302.28055     -3246.1598     -3263.6253      17.465554      6684.6947      10112.159    
      1600   310.65336     -3246.8653     -3264.8147      17.949329      6559.5232      10112.159    
      1700   280.6323      -3247.4238     -3263.6386      16.214733      6841.8941      10112.159    
      1800   274.59168     -3247.1216     -3262.9873      15.865711      6909.2325      10112.159    
      1900   311.25869     -3246.2011     -3264.1854      17.984304      6986.6521      10112.159    
      2000   296.5497      -3246.1843     -3263.3188      17.13443       6837.3431      10112.159    
      2100   324.15071     -3245.5469     -3264.2761      18.729196      6738.4007      10112.159    
      2200   294.25793     -3246.0234     -3263.0255      17.002013      7053.2195      10112.159    
      2300   273.82328     -3246.8729     -3262.6942      15.821313      7091.8892      10112.159    
      2400   312.25749     -3246.8224     -3264.8644      18.042014      6442.2123      10112.159    
      2500   290.82099     -3247.4358     -3264.2393      16.803429      6335.1857      10112.159    
      2600   331.04476     -3246.5085     -3265.636       19.127529      6353.8921      10112.159    
      2700   276.02278     -3246.384      -3262.3324      15.948399      7329.2772      10112.159    
      2800   292.78806     -3245.781      -3262.6981      16.917085      7018.6452      10112.159    
      2900   319.22256     -3245.2581     -3263.7025      18.444451      6828.7925      10112.159    
      3000   303.1966      -3245.4612     -3262.9797      17.518483      6776.1154      10112.159    
      3100   306.0449      -3246.4707     -3264.1537      17.683056      6839.697       10112.159    
      3200   291.49115     -3247.8262     -3264.6684      16.84215       6369.5756      10112.159    
      3300   283.37862     -3247.804      -3264.1774      16.373414      6625.5894      10112.159    
      3400   294.06993     -3246.6351     -3263.6263      16.99115       6526.5023      10112.159    
      3500   301.13807     -3246.0915     -3263.491       17.399542      7015.3228      10112.159    
      3600   294.26679     -3246.3453     -3263.3479      17.002525      6457.9017      10112.159    
      3700   311.16763     -3246.5379     -3264.5169      17.979043      6650.3707      10112.159    
      3800   269.94046     -3247.6197     -3263.2167      15.596966      6521.9867      10112.159    
      3900   300.29778     -3248.0502     -3265.4012      17.350991      6383.781       10112.159    
      4000   280.24203     -3248.1079     -3264.3001      16.192184      6438.2021      10112.159    
      4100   297.95743     -3246.4605     -3263.6762      17.215767      6515.2728      10112.159    
      4200   322.06452     -3245.2893     -3263.898       18.608658      6789.3267      10112.159    
      4300   298.91502     -3246.0004     -3263.2715      17.271096      6760.9788      10112.159    
      4400   318.33711     -3246.1887     -3264.582       18.39329       6453.949       10112.159    
      4500   286.23389     -3246.8555     -3263.3939      16.538389      6804.4859      10112.159    
      4600   279.43989     -3247.5004     -3263.6463      16.145837      6264.4374      10112.159    
      4700   308.17262     -3248.112      -3265.918       17.805994      6098.3859      10112.159    
      4800   284.74075     -3248.1865     -3264.6386      16.452117      6283.437       10112.159    
      4900   280.38671     -3246.8224     -3263.0229      16.200544      6839.0534      10112.159    
      5000   314.68296     -3245.5685     -3263.7507      18.182157      6706.1558      10112.159    
      5100   292.51282     -3246.2427     -3263.1439      16.901182      6701.6993      10112.159    
      5200   318.30038     -3246.271      -3264.6622      18.391168      6506.1965      10112.159    
      5300   303.25437     -3246.6778     -3264.1996      17.52182       6589.182       10112.159    
      5400   267.0283      -3248.2767     -3263.7054      15.428704      6442.7101      10112.159    
      5500   293.80865     -3248.1073     -3265.0834      16.976054      6353.6835      10112.159    
      5600   290.37125     -3247.2656     -3264.043       16.777443      6505.8866      10112.159    
      5700   294.15706     -3246.7108     -3263.7069      16.996184      6513.4406      10112.159    
      5800   317.01262     -3245.9343     -3264.251       18.316763      6595.7853      10112.159    
      5900   288.77646     -3246.4392     -3263.1245      16.685297      6797.5213      10112.159    
      6000   305.2338      -3246.7395     -3264.3757      17.636191      6457.168       10112.159    
      6100   285.93956     -3247.4378     -3263.9591      16.521383      6686.6465      10112.159    
      6200   286.54458     -3248.0903     -3264.6466      16.556341      6121.8358      10112.159    
      6300   296.59603     -3247.3083     -3264.4454      17.137106      6423.8344      10112.159    
      6400   299.02284     -3245.9567     -3263.234       17.277326      6622.7895      10112.159    
      6500   324.80707     -3245.4015     -3264.1687      18.76712       6536.3767      10112.159    
      6600   284.17022     -3246.2251     -3262.6442      16.419152      6932.6998      10112.159    
      6700   310.58169     -3246.2197     -3264.1648      17.945188      6540.4084      10112.159    
      6800   307.08103     -3246.4512     -3264.1941      17.742922      6403.639       10112.159    
      6900   295.10938     -3246.7082     -3263.7594      17.051209      6641.4336      10112.159    
      7000   295.87657     -3246.5507     -3263.6463      17.095537      6644.3653      10112.159    
      7100   295.10918     -3246.6152     -3263.6664      17.051197      6888.4209      10112.159    
      7200   299.34217     -3246.6123     -3263.9081      17.295776      6467.4294      10112.159    
      7300   327.88611     -3245.292      -3264.237       18.945025      6859.7724      10112.159    
      7400   299.05814     -3244.7988     -3262.0782      17.279365      7243.2902      10112.159    
      7500   312.75942     -3245.2455     -3263.3165      18.071016      7088.325       10112.159    
      7600   293.09821     -3247.1951     -3264.1301      16.935005      6181.4219      10112.159    
      7700   314.90636     -3246.8449     -3265.04        18.195064      6593.9923      10112.159    
      7800   285.25654     -3246.9566     -3263.4385      16.481919      6683.3731      10112.159    
      7900   300.39997     -3246.212      -3263.5689      17.356896      6942.6863      10112.159    
      8000   308.17171     -3245.2807     -3263.0867      17.805941      6997.0168      10112.159    
      8100   302.54631     -3245.5088     -3262.9897      17.480909      6811.9652      10112.159    
      8200   294.95678     -3247.4404     -3264.4828      17.042392      6696.1289      10112.159    
      8300   288.90877     -3247.9736     -3264.6665      16.692942      6197.8902      10112.159    
      8400   292.26356     -3247.1123     -3263.999       16.886779      6803.7317      10112.159    
      8500   296.00719     -3245.8281     -3262.9312      17.103084      7142.2018      10112.159    
      8600   307.36597     -3245.3444     -3263.1038      17.759386      6955.9602      10112.159    
      8700   297.52834     -3246.1698     -3263.3607      17.190975      6755.7126      10112.159    
      8800   317.55497     -3246.7078     -3265.0559      18.348099      6147.301       10112.159    
      8900   287.47667     -3247.1751     -3263.7853      16.610197      6757.2157      10112.159    
      9000   282.81381     -3247.0004     -3263.3411      16.340779      7022.7536      10112.159    
      9100   298.21465     -3246.4412     -3263.6718      17.230629      6448.928       10112.159    
      9200   320.32552     -3245.7877     -3264.2959      18.508179      6698.5214      10112.159    
      9300   306.10503     -3245.5721     -3263.2586      17.68653       6583.9304      10112.159    
      9400   310.07474     -3245.2453     -3263.1612      17.915896      7049.4275      10112.159    
      9500   279.64616     -3246.4552     -3262.6129      16.157755      6844.5259      10112.159    
      9600   303.70227     -3247.2651     -3264.8128      17.5477        6455.68        10112.159    
      9700   292.90722     -3247.6396     -3264.5636      16.92397       6423.7494      10112.159    
      9800   303.91683     -3246.3121     -3263.8722      17.560097      6672.8633      10112.159    
      9900   304.06791     -3245.6315     -3263.2003      17.568827      6798.3003      10112.159    
     10000   295.11802     -3246.0547     -3263.1064      17.051708      7043.9283      10112.159    
     10100   295.08337     -3246.7129     -3263.7626      17.049706      6648.1189      10112.159    
     10200   294.0587      -3247.585      -3264.5755      16.990501      6212.2711      10112.159    
     10300   290.81909     -3248.3964     -3265.1997      16.803319      6041.676       10112.159    
     10400   286.38548     -3248.2625     -3264.8097      16.547148      6345.069       10112.159    
     10500   286.5735      -3246.5065     -3263.0645      16.558012      7099.3471      10112.159    
     10600   303.87288     -3245.8376     -3263.3951      17.557557      6682.9865      10112.159    
     10700   314.62771     -3245.8868     -3264.0658      18.178964      6696.9587      10112.159    
     10800   286.92469     -3246.7854     -3263.3637      16.578304      6689.1907      10112.159    
     10900   297.12109     -3247.6658     -3264.8333      17.167444      6507.7634      10112.159    
     11000   281.77103     -3248.4557     -3264.7362      16.280529      6412.486       10112.159    
     11100   287.79929     -3247.6277     -3264.2565      16.628837      6547.5134      10112.159    
     11200   306.16729     -3245.8236     -3263.5137      17.690127      6922.1793      10112.159    
     11300   305.67617     -3245.5648     -3263.2265      17.661751      6852.3673      10112.159    
     11400   305.67821     -3246.2143     -3263.8762      17.661868      6619.9615      10112.159    
     11500   282.69026     -3247.3514     -3263.6851      16.333641      6788.3111      10112.159    
     11600   284.66421     -3247.4919     -3263.9396      16.447694      6616.0991      10112.159    
     11700   321.50236     -3245.9063     -3264.4825      18.576177      6432.0427      10112.159    
     11800   320.43908     -3244.7516     -3263.2663      18.514741      7007.1389      10112.159    
     11900   314.11331     -3245.1452     -3263.2945      18.149243      7097.9662      10112.159    
     12000   287.74141     -3246.2766     -3262.9021      16.625493      6950.9734      10112.159    
     12100   306.22185     -3246.3874     -3264.0807      17.693279      6644.9613      10112.159    
     12200   294.96899     -3247.0203     -3264.0634      17.043097      6638.4403      10112.159    
     12300   305.38727     -3246.8191     -3264.4642      17.645058      6556.8407      10112.159    
     12400   304.99081     -3245.8548     -3263.477       17.622151      6989.63        10112.159    
     12500   320.79521     -3243.8426     -3262.3779      18.535318      7321.8036      10112.159    
     12600   326.2151      -3244.2035     -3263.052       18.848475      7068.9514      10112.159    
     12700   305.83793     -3245.4469     -3263.118       17.671097      6854.103       10112.159    
     12800   307.60112     -3246.4842     -3264.2572      17.772973      6709.3009      10112.159    
     12900   287.03225     -3247.3294     -3263.914       16.584518      6542.6961      10112.159    
     13000   302.49074     -3246.8304     -3264.3081      17.477699      6643.0685      10112.159    
     13100   295.25597     -3246.2091     -3263.2687      17.059679      6843.9687      10112.159    
     13200   324.51579     -3244.3541     -3263.1044      18.75029       7155.7672      10112.159    
     13300   319.99949     -3244.0073     -3262.4967      18.489342      7069.2476      10112.159    
     13400   312.47239     -3245.1351     -3263.1896      18.054431      7186.0247      10112.159    
     13500   300.71072     -3246.1504     -3263.5252      17.37485       6765.3232      10112.159    
     13600   296.40823     -3246.6599     -3263.7862      17.126256      6787.1969      10112.159    
     13700   294.28313     -3247.0044     -3264.0079      17.003469      6518.9436      10112.159    
     13800   289.77571     -3247.2509     -3263.9939      16.743033      6639.5314      10112.159    
     13900   304.56146     -3246.2992     -3263.8965      17.597343      6742.4048      10112.159    
     14000   317.86983     -3245.1211     -3263.4874      18.366292      7182.5508      10112.159    
     14100   294.35943     -3245.4237     -3262.4315      17.007877      7232.7241      10112.159    
     14200   300.28202     -3246.7006     -3264.0507      17.35008       6746.9077      10112.159    
     14300   281.85687     -3247.7445     -3264.03        16.285488      6705.2923      10112.159    
     14400   298.2064      -3247.1905     -3264.4207      17.230153      6623.2637      10112.159    
     14500   298.65524     -3246.4598     -3263.7159      17.256086      6727.1733      10112.159    
     14600   299.69035     -3245.9823     -3263.2981      17.315894      6990.2817      10112.159    
     14700   296.75134     -3245.9324     -3263.0785      17.14608       6930.6509      10112.159    
     14800   300.0118      -3246.179      -3263.5135      17.334467      7024.3484      10112.159    
     14900   307.20996     -3246.9427     -3264.693       17.750372      6716.802       10112.159    
     15000   287.98133     -3247.4875     -3264.1268      16.639355      6829.8462      10112.159    
     15100   281.7986      -3247.0906     -3263.3727      16.282122      6783.8175      10112.159    
     15200   313.79509     -3245.4708     -3263.6017      18.130856      6871.4251      10112.159    
     15300   316.85237     -3245.2034     -3263.5109      18.307503      6837.6943      10112.159    
     15400   304.22998     -3246.2147     -3263.7929      17.578191      6897.0817      10112.159    
     15500   280.53161     -3246.9521     -3263.161       16.208916      6906.2625      10112.159    
     15600   313.9731      -3246.8322     -3264.9734      18.141141      6622.7917      10112.159    
     15700   278.1233      -3247.3388     -3263.4086      16.069765      6664.2084      10112.159    
     15800   310.62315     -3246.2738     -3264.2213      17.947584      6786.5691      10112.159    
     15900   308.96903     -3245.8116     -3263.6636      17.852009      6793.4395      10112.159    
     16000   298.15462     -3246.0023     -3263.2295      17.227161      6955.2933      10112.159    
     16100   295.48256     -3246.4213     -3263.494       17.072771      6909.3241      10112.159    
     16200   294.12923     -3247.2527     -3264.2473      16.994576      6361.6619      10112.159    
     16300   301.53584     -3247.5187     -3264.9412      17.422525      6726.0031      10112.159    
     16400   304.1642      -3247.0541     -3264.6285      17.57439       6585.3484      10112.159    
     16500   296.72995     -3245.8512     -3262.996       17.144844      7202.253       10112.159    
     16600   307.13301     -3244.9841     -3262.73        17.745926      7131.5171      10112.159    
     16700   321.03938     -3245.3525     -3263.902       18.549426      6892.0927      10112.159    
     16800   303.65409     -3246.1816     -3263.7265      17.544916      6713.8636      10112.159    
     16900   303.52052     -3246.4865     -3264.0237      17.537198      6504.0852      10112.159    
     17000   297.87905     -3246.7323     -3263.9436      17.211238      6644.6068      10112.159    
     17100   299.88953     -3246.7105     -3264.0379      17.327402      6633.6162      10112.159    
     17200   297.72642     -3246.6379     -3263.8404      17.20242       6828.1275      10112.159    
     17300   291.15472     -3246.2026     -3263.0253      16.822711      7094.4121      10112.159    
     17400   317.67746     -3245.2431     -3263.5983      18.355176      7187.06        10112.159    
     17500   311.13228     -3245.472      -3263.449       17.977         6884.4383      10112.159    
     17600   300.19929     -3246.8885     -3264.2338      17.3453        6479.1235      10112.159    
     17700   284.0082      -3247.7335     -3264.1433      16.40979       6676.6006      10112.159    
     17800   283.25155     -3247.4947     -3263.8608      16.366072      6509.4312      10112.159    
     17900   305.10429     -3246.6972     -3264.3259      17.628707      6693.9082      10112.159    
     18000   304.65047     -3246.4881     -3264.0906      17.602486      6644.9518      10112.159    
     18100   300.80104     -3246.3323     -3263.7124      17.380069      7004.6496      10112.159    
     18200   279.44214     -3245.9621     -3262.1081      16.145967      7313.1941      10112.159    
     18300   334.20029     -3244.6873     -3263.9972      19.309854      6951.6839      10112.159    
     18400   319.27527     -3245.3155     -3263.7629      18.447497      6800.9392      10112.159    
     18500   289.59625     -3246.8507     -3263.5834      16.732664      6612.5952      10112.159    
     18600   291.21313     -3247.0843     -3263.9104      16.826087      6758.8742      10112.159    
     18700   295.87565     -3246.8145     -3263.91        17.095484      6830.4422      10112.159    
     18800   311.53221     -3245.6867     -3263.6869      18.000108      6672.7705      10112.159    
     18900   312.73047     -3244.3309     -3262.4003      18.069343      7330.1361      10112.159    
     19000   317.48258     -3244.5926     -3262.9365      18.343916      7149.9372      10112.159    
     19100   304.45796     -3246.6378     -3264.2292      17.591363      6892.5623      10112.159    
     19200   285.05595     -3247.0677     -3263.538       16.470329      6667.7443      10112.159    
     19300   306.68454     -3246.5183     -3264.2383      17.720013      6792.02        10112.159    
     19400   296.36763     -3246.0472     -3263.1711      17.12391       6889.4428      10112.159    
     19500   318.39252     -3245.2088     -3263.6052      18.396492      7178.8424      10112.159    
     19600   306.27442     -3245.5551     -3263.2514      17.696317      6885.3389      10112.159    
     19700   295.8012      -3247.2232     -3264.3144      17.091182      6927.315       10112.159    
     19800   293.1071      -3247.7293     -3264.6649      16.935519      6448.1777      10112.159    
     19900   289.83167     -3247.5892     -3264.3355      16.746267      6453.1557      10112.159    
     20000   315.12556     -3246.0289     -3264.2367      18.20773       6832.9351      10112.159    
     20100   301.30986     -3245.9965     -3263.406       17.409468      7069.4084      10112.159    
     20200   302.17435     -3246.2387     -3263.6981      17.459418      6914.5623      10112.159    
     20300   286.32392     -3246.9914     -3263.535       16.543592      6755.277       10112.159    
     20400   288.43584     -3247.6722     -3264.3378      16.665617      6628.5568      10112.159    
     20500   292.92462     -3247.2049     -3264.1298      16.924975      6447.8372      10112.159    
     20600   322.70683     -3245.3142     -3263.96        18.64577       7147.319       10112.159    
     20700   301.83969     -3245.3482     -3262.7883      17.440082      7207.7665      10112.159    
     20800   288.57474     -3246.2385     -3262.9121      16.673642      7189.7082      10112.159    
     20900   302.62152     -3247.2305     -3264.7158      17.485255      6670.8859      10112.159    
     21000   303.32695     -3247.2816     -3264.8076      17.526014      6348.9623      10112.159    
     21100   297.44422     -3246.8941     -3264.0802      17.186114      6907.1068      10112.159    
     21200   296.58759     -3246.3838     -3263.5204      17.136619      6928.7306      10112.159    
     21300   304.80424     -3246.1189     -3263.7303      17.611371      6759.0036      10112.159    
     21400   302.80964     -3246.2098     -3263.7059      17.496125      6871.7341      10112.159    
     21500   302.23827     -3246.6698     -3264.1329      17.463111      6876.9205      10112.159    
     21600   291.88979     -3248.4539     -3265.319       16.865183      6308.8328      10112.159    
     21700   273.58901     -3248.3946     -3264.2024      15.807777      6452.8126      10112.159    
     21800   292.63669     -3246.7987     -3263.7071      16.908339      7098.3882      10112.159    
     21900   314.66879     -3246.0253     -3264.2066      18.181338      6750.7149      10112.159    
     22000   303.03227     -3246.2134     -3263.7224      17.508988      6889.473       10112.159    
     22100   301.11305     -3246.3732     -3263.7713      17.398097      7028.8698      10112.159    
     22200   288.63147     -3246.7337     -3263.4106      16.67692       6745.2279      10112.159    
     22300   287.34409     -3247.4578     -3264.0604      16.602536      6835.7469      10112.159    
     22400   299.16227     -3247.1717     -3264.4571      17.285382      6558.3758      10112.159    
     22500   304.73951     -3246.0219     -3263.6295      17.607631      6854.6973      10112.159    
     22600   317.87314     -3244.811      -3263.1775      18.366482      7002.1517      10112.159    
     22700   315.59905     -3244.648      -3262.8831      18.235088      7304.9954      10112.159    
     22800   290.61346     -3246.9209     -3263.7123      16.791438      6833.1439      10112.159    
     22900   281.24821     -3247.4774     -3263.7277      16.25032       6828.4479      10112.159    
     23000   295.56198     -3246.9532     -3264.0306      17.07736       6971.079       10112.159    
     23100   327.73499     -3245.6281     -3264.5644      18.936293      6697.6058      10112.159    
     23200   314.45384     -3245.7844     -3263.9534      18.168918      6850.7222      10112.159    
     23300   292.94486     -3246.3945     -3263.3206      16.926145      6936.4122      10112.159    
     23400   287.83407     -3247.136      -3263.7669      16.630847      6889.8236      10112.159    
     23500   274.41521     -3248.3987     -3264.2542      15.855514      6513.7937      10112.159    
     23600   301.05783     -3247.8305     -3265.2254      17.394906      6505.2215      10112.159    
     23700   287.48879     -3247.0837     -3263.6946      16.610896      6858.0464      10112.159    
     23800   296.3295      -3246.5977     -3263.7194      17.121707      7022.371       10112.159    
     23900   308.4617      -3246.3142     -3264.1369      17.822697      6712.364       10112.159    
     24000   308.96878     -3246.0116     -3263.8636      17.851995      6860.5083      10112.159    
     24100   303.70468     -3245.6688     -3263.2167      17.547839      7033.4918      10112.159    
     24200   303.80561     -3245.7984     -3263.3521      17.553671      6899.6406      10112.159    
     24300   296.03819     -3246.621      -3263.7258      17.104875      6819.9423      10112.159    
     24400   297.38991     -3247.4136     -3264.5965      17.182977      6545.3559      10112.159    
     24500   293.08975     -3247.5468     -3264.4813      16.934516      6676.5144      10112.159    
     24600   296.22579     -3246.2271     -3263.3428      17.115714      7013.7159      10112.159    
     24700   319.12657     -3245.0374     -3263.4763      18.438905      7116.3302      10112.159    
     24800   308.05991     -3245.4071     -3263.2066      17.799481      6986.7846      10112.159    
     24900   303.81073     -3246.3263     -3263.8803      17.553967      6892.62        10112.159    
     25000   274.32479     -3247.8054     -3263.6557      15.85029       6726.9212      10112.159    
     25100   304.65434     -3247.5149     -3265.1176      17.60271       6435.444       10112.159    
     25200   298.95936     -3247.1792     -3264.4528      17.273658      6542.1517      10112.159    
     25300   302.62395     -3246.1217     -3263.6071      17.485395      6956.2893      10112.159    
     25400   305.68326     -3245.4568     -3263.1189      17.66216       7180.1423      10112.159    
     25500   297.42664     -3245.8604     -3263.0455      17.185098      6955.0355      10112.159    
     25600   296.07832     -3246.4309     -3263.5381      17.107194      6953.8944      10112.159    
     25700   311.56241     -3246.6181     -3264.6199      18.001853      6708.4031      10112.159    
     25800   299.90058     -3246.7851     -3264.1131      17.328041      6579.5387      10112.159    
     25900   305.25073     -3246.7217     -3264.3589      17.637169      6748.7987      10112.159    
     26000   291.44872     -3246.747      -3263.5867      16.839699      6938.2708      10112.159    
     26100   294.75598     -3246.3709     -3263.4017      17.03079       6872.9694      10112.159    
     26200   311.25883     -3245.4449     -3263.4292      17.984313      7266.8861      10112.159    
     26300   329.29603     -3244.7014     -3263.7279      19.026489      7115.0985      10112.159    
     26400   293.90976     -3246.2272     -3263.2091      16.981896      7065.4123      10112.159    
     26500   297.55682     -3247.0592     -3264.2519      17.19262       6814.5889      10112.159    
     26600   288.36271     -3247.0066     -3263.668       16.661391      6790.9086      10112.159    
     26700   304.00775     -3246.3805     -3263.9459      17.56535       7010.231       10112.159    
     26800   328.55403     -3245.3119     -3264.2955      18.983617      6837.1662      10112.159    
     26900   305.47824     -3244.5054     -3262.1557      17.650314      7723.3986      10112.159    
     27000   300.76445     -3245.0564     -3262.4344      17.377955      7523.4578      10112.159    
     27100   289.7721      -3247.1393     -3263.8821      16.742824      6943.2318      10112.159    
     27200   304.82266     -3247.1891     -3264.8015      17.612435      6483.1748      10112.159    
     27300   306.39519     -3246.5634     -3264.2666      17.703295      6674.1181      10112.159    
     27400   311.26503     -3245.4621     -3263.4468      17.984671      7149.6845      10112.159    
     27500   287.6257      -3245.4414     -3262.0602      16.618807      7441.4305      10112.159    
     27600   303.86694     -3246.2861     -3263.8433      17.557214      7115.5743      10112.159    
     27700   294.59741     -3248.0667     -3265.0884      17.021628      6263.5963      10112.159    
     27800   286.22521     -3247.8542     -3264.3921      16.537888      6485.0126      10112.159    
     27900   298.81289     -3246.5897     -3263.8549      17.265195      6874.358       10112.159    
     28000   305.89798     -3246.0681     -3263.7427      17.674566      7053.4059      10112.159    
     28100   288.28056     -3245.9993     -3262.656       16.656645      7104.0804      10112.159    
     28200   321.70465     -3245.6165     -3264.2044      18.587865      6852.083       10112.159    
     28300   288.06223     -3247.5186     -3264.1626      16.64403       6511.3006      10112.159    
     28400   300.06894     -3247.5568     -3264.8945      17.337769      6568.9596      10112.159    
     28500   286.16607     -3246.9899     -3263.5244      16.534471      6903.2289      10112.159    
     28600   301.00118     -3245.6302     -3263.0218      17.391633      7217.4454      10112.159    
     28700   308.77695     -3245.586      -3263.4269      17.840911      7086.4189      10112.159    
     28800   304.0054      -3246.0608     -3263.626       17.565215      7086.3566      10112.159    
     28900   312.67234     -3246.613      -3264.679       18.065984      6676.6084      10112.159    
     29000   298.02285     -3247.2938     -3264.5133      17.219547      6573.4995      10112.159    
     29100   273.18525     -3247.5086     -3263.293       15.784448      6802.2086      10112.159    
     29200   294.42713     -3246.9666     -3263.9784      17.011789      6810.1988      10112.159    
     29300   317.1983      -3245.7177     -3264.0452      18.327491      6742.93        10112.159    
     29400   330.89771     -3245.2027     -3264.3218      19.119033      6963.4548      10112.159    
     29500   267.52506     -3246.4366     -3261.894       15.457406      7125.9976      10112.159    
     29600   301.99465     -3246.4159     -3263.865       17.449035      7032.2174      10112.159    
     29700   293.31826     -3246.9069     -3263.8546      16.947719      6783.1665      10112.159    
     29800   305.70213     -3246.8207     -3264.484       17.663251      6735.5929      10112.159    
     29900   290.10349     -3246.7704     -3263.5324      16.761972      6828.1849      10112.159    
     30000   304.03618     -3246.3639     -3263.9309      17.566993      6928.821       10112.159    
     30100   305.87721     -3246.1584     -3263.8318      17.673366      6707.1225      10112.159    
     30200   294.54523     -3246.3596     -3263.3782      17.018613      7066.3694      10112.159    
     30300   282.96898     -3247.196      -3263.5457      16.349745      6906.9885      10112.159    
     30400   297.08838     -3247.5746     -3264.7401      17.165554      6773.2626      10112.159    
     30500   289.23944     -3247.4707     -3264.1827      16.712048      6751.5464      10112.159    
     30600   310.98549     -3246.068      -3264.0366      17.968519      7060.0929      10112.159    
     30700   299.16624     -3245.4091     -3262.6947      17.285612      7115.728       10112.159    
     30800   322.00572     -3244.8687     -3263.474       18.60526       7268.2327      10112.159    
     30900   296.7066      -3246.8044     -3263.9479      17.143495      6836.4337      10112.159    
     31000   280.54938     -3247.9188     -3264.1288      16.209943      6794.241       10112.159    
     31100   305.97055     -3247.184      -3264.8628      17.67876       6776.9483      10112.159    
     31200   299.52553     -3246.2322     -3263.5386      17.306371      6922.5781      10112.159    
     31300   317.22235     -3245.1901     -3263.519       18.328881      7340.1804      10112.159    
     31400   300.92482     -3245.4521     -3262.8393      17.387221      7108.8463      10112.159    
     31500   314.14793     -3246.155      -3264.3062      18.151242      6627.4718      10112.159    
     31600   296.12765     -3246.5127     -3263.6227      17.110044      7032.5225      10112.159    
     31700   293.23425     -3246.7571     -3263.6999      16.942865      6865.6704      10112.159    
     31800   296.07081     -3246.8159     -3263.9227      17.10676       6714.2191      10112.159    
     31900   312.33241     -3245.6746     -3263.721       18.046343      6855.5409      10112.159    
     32000   301.56764     -3245.0675     -3262.4919      17.424363      7280.1841      10112.159    
     32100   307.87338     -3245.9671     -3263.7558      17.788703      7025.7311      10112.159    
     32200   295.86841     -3247.4711     -3264.5662      17.095065      6591.0696      10112.159    
     32300   287.36767     -3247.5555     -3264.1594      16.603898      6774.2476      10112.159    
     32400   300.26262     -3246.6114     -3263.9603      17.348959      6952.8577      10112.159    
     32500   309.76298     -3245.5907     -3263.4886      17.897884      7037.2394      10112.159    
     32600   295.5508      -3245.6461     -3262.7228      17.076714      7353.1332      10112.159    
     32700   302.81441     -3245.9772     -3263.4736      17.4964        7133.7985      10112.159    
     32800   297.56791     -3246.3687     -3263.562       17.193261      7042.6456      10112.159    
     32900   304.92865     -3246.3734     -3263.992       17.61856       6970.8495      10112.159    
     33000   302.13658     -3246.674      -3264.1312      17.457236      6764.9334      10112.159    
     33100   277.47892     -3247.6384     -3263.6709      16.032533      6878.6065      10112.159    
     33200   306.95909     -3247.6754     -3265.4112      17.735877      6608.8596      10112.159    
     33300   280.3118      -3247.3558     -3263.552       16.196215      6784.3359      10112.159    
     33400   302.49812     -3245.7787     -3263.2568      17.478125      7204.5196      10112.159    
     33500   303.46739     -3245.5611     -3263.0953      17.534129      7125.2785      10112.159    
     33600   319.55951     -3245.8178     -3264.2817      18.46392       6940.0474      10112.159    
     33700   298.11165     -3247.3809     -3264.6056      17.224678      6634.8581      10112.159    
     33800   267.22196     -3248.2835     -3263.7234      15.439894      6594.1815      10112.159    
     33900   293.63821     -3247.4066     -3264.3728      16.966206      6825.5149      10112.159    
     34000   301.4672      -3246.5435     -3263.962       17.418559      6744.9311      10112.159    
     34100   319.61231     -3245.9641     -3264.4311      18.466971      6884.6437      10112.159    
     34200   294.3279      -3246.1303     -3263.1364      17.006055      6967.697       10112.159    
     34300   304.27208     -3245.7598     -3263.3404      17.580623      7164.5292      10112.159    
     34400   292.49143     -3246.3145     -3263.2145      16.899946      7029.0753      10112.159    
     34500   290.9035      -3246.9988     -3263.807       16.808196      6851.781       10112.159    
     34600   296.79616     -3247.4107     -3264.5594      17.14867       6661.5273      10112.159    
     34700   301.86655     -3247.1432     -3264.5848      17.441633      6659.407       10112.159    
     34800   295.52201     -3245.8286     -3262.9037      17.07505       7121.3985      10112.159    
     34900   298.81988     -3245.0978     -3262.3634      17.265599      7485.8517      10112.159    
     35000   315.47522     -3245.2963     -3263.5242      18.227933      7141.398       10112.159    
     35100   286.64965     -3247.0428     -3263.6052      16.562412      6725.0932      10112.159    
     35200   306.76512     -3247.2037     -3264.9284      17.72467       6496.1119      10112.159    
     35300   281.66132     -3247.2705     -3263.5446      16.27419       6662.1041      10112.159    
     35400   307.29381     -3246.2897     -3264.0449      17.755217      6677.0824      10112.159    
     35500   303.76052     -3245.5199     -3263.071       17.551066      7038.9934      10112.159    
     35600   318.56264     -3244.5946     -3263.0009      18.406321      7253.6925      10112.159    
     35700   324.6447      -3244.1264     -3262.8842      18.757739      7281.4931      10112.159    
     35800   290.08949     -3245.7999     -3262.5611      16.761164      7307.0911      10112.159    
     35900   303.25204     -3246.7844     -3264.306       17.521686      6773.7693      10112.159    
     36000   283.44421     -3247.663      -3264.0402      16.377204      6669.6066      10112.159    
     36100   308.198       -3246.8898     -3264.6972      17.80746       6618.9251      10112.159    
     36200   294.13142     -3246.3786     -3263.3733      16.994703      7006.2823      10112.159    
     36300   294.44968     -3246.0205     -3263.0336      17.013092      7175.0243      10112.159    
     36400   309.15861     -3246.1007     -3263.9636      17.862963      6995.6819      10112.159    
     36500   288.74799     -3246.7561     -3263.4397      16.683652      6753.5367      10112.159    
     36600   299.39099     -3246.6155     -3263.9141      17.298597      6756.7221      10112.159    
     36700   313.48743     -3246.033      -3264.146       18.11308       6884.8378      10112.159    
     36800   310.22387     -3244.7437     -3262.6682      17.924513      7318.6588      10112.159    
     36900   301.56515     -3244.6331     -3262.0573      17.424219      7379.7904      10112.159    
     37000   288.37324     -3246.2226     -3262.8846      16.662         7053.0776      10112.159    
     37100   314.49773     -3246.648      -3264.8194      18.171454      6641.5586      10112.159    
     37200   296.55354     -3247.0645     -3264.1992      17.134652      6702.776       10112.159    
     37300   287.6396      -3246.5695     -3263.1891      16.61961       7000.8699      10112.159    
     37400   311.39293     -3245.1199     -3263.112       17.992061      7228.3399      10112.159    
     37500   310.94776     -3245.2411     -3263.2074      17.966339      6984.6881      10112.159    
     37600   312.64786     -3246.3779     -3264.4425      18.06457       6599.3511      10112.159    
     37700   280.20598     -3248.0372     -3264.2273      16.190101      6700.1978      10112.159    
     37800   296.37333     -3247.4913     -3264.6155      17.124239      6472.2682      10112.159    
     37900   294.50598     -3246.3455     -3263.3619      17.016345      6890.2888      10112.159    
     38000   304.12132     -3245.5796     -3263.1515      17.571912      7266.1877      10112.159    
     38100   303.72241     -3245.8668     -3263.4156      17.548863      7058.6854      10112.159    
     38200   295.68646     -3247.1275     -3264.212       17.084552      6505.6245      10112.159    
     38300   312.61577     -3247.7747     -3265.8374      18.062716      6157.5325      10112.159    
     38400   272.12491     -3247.89       -3263.6132      15.723183      6672.9408      10112.159    
     38500   304.41248     -3247.0585     -3264.6472      17.588735      6698.0833      10112.159    
     38600   287.10391     -3246.9322     -3263.5208      16.588659      6782.0755      10112.159    
     38700   319.88351     -3245.8975     -3264.3801      18.482641      6659.1507      10112.159    
     38800   298.82373     -3245.8873     -3263.1531      17.265822      7118.5531      10112.159    
     38900   283.24618     -3246.5394     -3262.9051      16.365762      7100.8849      10112.159    
     39000   289.95031     -3247.9139     -3264.6671      16.753121      6475.6898      10112.159    
     39100   297.88858     -3248.3893     -3265.6011      17.211789      5941.9031      10112.159    
     39200   290.73947     -3247.3904     -3264.1891      16.798719      6542.2499      10112.159    
     39300   295.38714     -3246.3582     -3263.4255      17.067258      6848.342       10112.159    
     39400   300.87401     -3246.1246     -3263.5089      17.384285      7128.8249      10112.159    
     39500   301.03549     -3246.4354     -3263.829       17.393615      6830.2659      10112.159    
     39600   301.07786     -3246.9889     -3264.3849      17.396063      6531.1409      10112.159    
     39700   292.68311     -3247.3804     -3264.2914      16.911021      6424.2315      10112.159    
     39800   290.00627     -3247.509      -3264.2653      16.756355      6763.6678      10112.159    
     39900   303.68991     -3246.5447     -3264.0916      17.546986      6612.7856      10112.159    
     40000   303.75456     -3245.5543     -3263.1051      17.550721      7169.4143      10112.159    
     40100   297.41727     -3245.4186     -3262.6031      17.184557      7263.8351      10112.159    
     40200   315.38964     -3246.1197     -3264.3427      18.222988      6623.6994      10112.159    
     40300   286.23844     -3247.8048     -3264.3435      16.538652      6481.8405      10112.159    
     40400   308.97563     -3247.1433     -3264.9957      17.852391      6421.0165      10112.159    
     40500   299.49572     -3246.4119     -3263.7165      17.304649      6733.132       10112.159    
     40600   295.7         -3245.9277     -3263.0131      17.085335      6851.3233      10112.159    
     40700   332.31553     -3244.7253     -3263.9262      19.200953      6967.2622      10112.159    
     40800   301.87227     -3244.3294     -3261.7714      17.441964      7273.5476      10112.159    
     40900   310.31846     -3245.1676     -3263.0976      17.929979      7169.3672      10112.159    
     41000   296.62213     -3247.0026     -3264.1412      17.138614      6667.1537      10112.159    
     41100   297.71467     -3247.1904     -3264.3922      17.201741      6386.4186      10112.159    
     41200   293.74229     -3246.766      -3263.7382      16.97222       6648.9468      10112.159    
     41300   310.67431     -3245.5951     -3263.5457      17.950539      7258.987       10112.159    
     41400   293.89364     -3245.0653     -3262.0463      16.980964      7301.0277      10112.159    
     41500   309.23066     -3245.4332     -3263.3003      17.867126      6957.2852      10112.159    
     41600   299.87716     -3247.2538     -3264.5804      17.326688      6628.5707      10112.159    
     41700   292.64823     -3247.4078     -3264.3168      16.909005      6549.6745      10112.159    
     41800   301.4156      -3246.5686     -3263.9841      17.415578      6737.9208      10112.159    
     41900   311.22701     -3245.5793     -3263.5618      17.982474      7084.7326      10112.159    
     42000   308.34196     -3244.629      -3262.4448      17.815778      6964.8587      10112.159    
     42100   320.02222     -3243.5616     -3262.0522      18.490655      7547.059       10112.159    
     42200   306.0734      -3245.1573     -3262.842       17.684702      6958.8803      10112.159    
     42300   301.53487     -3246.3144     -3263.7368      17.422469      6719.8916      10112.159    
     42400   295.61889     -3246.9031     -3263.9837      17.080648      6742.2941      10112.159    
     42500   296.8761      -3247.2869     -3264.4402      17.153288      6414.8655      10112.159    
     42600   300.49074     -3247.4164     -3264.7785      17.36214       6486.6398      10112.159    
     42700   292.15295     -3246.4157     -3263.2961      16.880389      6913.3314      10112.159    
     42800   311.54214     -3245.3794     -3263.3801      18.000682      6908.6619      10112.159    
     42900   307.83925     -3245.7409     -3263.5276      17.786732      7149.2609      10112.159    
     43000   288.38396     -3246.9741     -3263.6367      16.662619      6893.4003      10112.159    
     43100   285.75649     -3247.5784     -3264.0893      16.510806      6522.2512      10112.159    
     43200   315.35498     -3247.1615     -3265.3825      18.220985      6226.9901      10112.159    
     43300   286.04298     -3246.5289     -3263.0563      16.527359      7018.1744      10112.159    
     43400   296.28106     -3245.219      -3262.3379      17.118908      7504.9742      10112.159    
     43500   317.1451      -3245.236      -3263.5605      18.324417      7004.9756      10112.159    
     43600   297.43715     -3246.5236     -3263.7093      17.185706      6580.6885      10112.159    
     43700   299.10026     -3247.2841     -3264.5659      17.281799      6733.122       10112.159    
     43800   283.91939     -3247.3217     -3263.7264      16.404659      6741.4749      10112.159    
     43900   297.81404     -3245.8186     -3263.0261      17.207482      7063.5128      10112.159    
     44000   318.7443      -3244.893      -3263.3099      18.416818      7065.6011      10112.159    
     44100   312.17433     -3245.1681     -3263.2054      18.037209      6976.7691      10112.159    
     44200   303.35334     -3246.0536     -3263.5811      17.527539      7098.8767      10112.159    
     44300   288.87974     -3246.8984     -3263.5897      16.691265      7066.8412      10112.159    
     44400   289.6899      -3247.0331     -3263.7712      16.738075      6926.4935      10112.159    
     44500   299.96387     -3246.5825     -3263.9142      17.331698      6623.3754      10112.159    
     44600   319.47506     -3244.6122     -3263.0713      18.45904       7252.5349      10112.159    
     44700   328.97057     -3244.5185     -3263.5262      19.007685      6962.3739      10112.159    
     44800   286.48677     -3245.8884     -3262.4414      16.553001      7283.7154      10112.159    
     44900   287.25861     -3246.477      -3263.0746      16.597597      7091.1589      10112.159    
     45000   314.89659     -3246.663      -3264.8575      18.1945        6472.0326      10112.159    
     45100   297.11219     -3247.3015     -3264.4684      17.16693       6579.8139      10112.159    
     45200   292.12148     -3247.9755     -3264.8541      16.87857       6488.1671      10112.159    
     45300   279.9432      -3248.0665     -3264.2414      16.174918      6507.3596      10112.159    
     45400   296.39367     -3246.5852     -3263.7106      17.125414      6905.5688      10112.159    
     45500   307.97187     -3245.6257     -3263.4201      17.794395      7085.8341      10112.159    
     45600   308.3654      -3246.0732     -3263.8903      17.817132      6743.3881      10112.159    
     45700   301.36919     -3246.5278     -3263.9407      17.412897      6774.016       10112.159    
     45800   304.15124     -3246.6347     -3264.2084      17.573641      6782.5685      10112.159    
     45900   284.11529     -3247.0804     -3263.4964      16.415978      6879.0267      10112.159    
     46000   317.79        -3245.3725     -3263.7342      18.361679      6928.892       10112.159    
     46100   312.17542     -3244.2357     -3262.273       18.037272      7182.5209      10112.159    
     46200   310.927       -3244.7791     -3262.7443      17.96514       7250.398       10112.159    
     46300   297.16989     -3246.566      -3263.7363      17.170264      6747.2912      10112.159    
     46400   290.49944     -3246.8146     -3263.5994      16.78485       6847.5874      10112.159    
     46500   320.88337     -3246.1897     -3264.7301      18.540411      6535.2217      10112.159    
     46600   294.99492     -3246.4048     -3263.4494      17.044596      7109.0807      10112.159    
     46700   307.35556     -3246.2379     -3263.9967      17.758785      6734.6581      10112.159    
     46800   293.60928     -3246.3959     -3263.3605      16.964534      7060.2821      10112.159    
     46900   309.31418     -3246.4165     -3264.2885      17.871952      6396.9354      10112.159    
     47000   304.56403     -3246.8741     -3264.4716      17.597492      6711.0916      10112.159    
     47100   282.21916     -3247.3136     -3263.62        16.306421      6513.4457      10112.159    
     47200   298.72866     -3246.8048     -3264.0651      17.260328      6681.9687      10112.159    
     47300   294.39638     -3245.6706     -3262.6806      17.010013      7201.2908      10112.159    
     47400   314.67746     -3244.8994     -3263.0812      18.181839      7242.2969      10112.159    
     47500   305.88856     -3245.8243     -3263.4983      17.674022      6746.6198      10112.159    
     47600   296.68036     -3247.3421     -3264.4841      17.141979      6443.9896      10112.159    
     47700   290.85863     -3247.4886     -3264.2942      16.805603      6369.2976      10112.159    
     47800   298.97528     -3247.038      -3264.3125      17.274578      6564.9655      10112.159    
     47900   297.80735     -3246.2428     -3263.4499      17.207096      6737.2994      10112.159    
     48000   322.57673     -3244.9476     -3263.5858      18.638253      6822.4301      10112.159    
     48100   311.90476     -3245.1514     -3263.1731      18.021634      6951.6854      10112.159    
     48200   309.87063     -3245.8901     -3263.7942      17.904103      6801.6874      10112.159    
     48300   271.41904     -3246.5452     -3262.2276      15.682398      6999.2553      10112.159    
     48400   312.11094     -3246.3689     -3264.4024      18.033547      6670.3086      10112.159    
     48500   301.65877     -3246.8667     -3264.2964      17.429628      6591.7188      10112.159    
     48600   299.25941     -3246.886      -3264.177       17.290995      6468.8341      10112.159    
     48700   298.62255     -3246.5758     -3263.83        17.254198      6636.2129      10112.159    
     48800   288.06902     -3245.9885     -3262.6329      16.644422      7181.8687      10112.159    
     48900   314.73533     -3245.219      -3263.4042      18.185182      6963.723       10112.159    
     49000   320.63756     -3245.3455     -3263.8717      18.526209      6726.8494      10112.159    
     49100   290.63709     -3247.0908     -3263.8836      16.792803      6449.1111      10112.159    
     49200   285.61897     -3247.4141     -3263.917       16.50286       6415.2651      10112.159    
     49300   313.70071     -3246.6972     -3264.8226      18.125403      6440.3735      10112.159    
     49400   283.17485     -3246.4435     -3262.8052      16.36164       6890.8182      10112.159    
     49500   322.30582     -3244.4022     -3263.0248      18.6226        7224.2463      10112.159    
     49600   306.1439      -3244.8845     -3262.5732      17.688776      7288.5023      10112.159    
     49700   298.2778      -3246.1695     -3263.4038      17.234278      6754.4296      10112.159    
     49800   312.59343     -3246.7696     -3264.8311      18.061425      6368.1797      10112.159    
     49900   282.64024     -3247.0327     -3263.3634      16.330751      6822.7354      10112.159    
     50000   305.31085     -3246.201      -3263.8417      17.640642      6816.3264      10112.159    
     50100   310.71204     -3245.4483     -3263.4011      17.952719      6949.5524      10112.159    
     50200   311.83993     -3244.0747     -3262.0926      18.017888      7163.9445      10112.159    
     50300   313.52917     -3244.6068     -3262.7223      18.115491      6990.492       10112.159    
     50400   305.35657     -3246.2203     -3263.8636      17.643284      6642.7433      10112.159    
     50500   294.17275     -3246.9222     -3263.9192      16.997091      6578.5296      10112.159    
     50600   291.04991     -3247.0003     -3263.8169      16.816656      6772.3424      10112.159    
     50700   307.98038     -3246.0658     -3263.8607      17.794886      6690.8978      10112.159    
     50800   311.01588     -3244.7653     -3262.7355      17.970275      7066.2937      10112.159    
     50900   327.61041     -3244.5439     -3263.473       18.929095      6967.4093      10112.159    
     51000   293.20044     -3246.7479     -3263.6889      16.940911      6584.7126      10112.159    
     51100   292.23516     -3247.0938     -3263.9789      16.885139      6671.8265      10112.159    
     51200   279.41076     -3246.8447     -3262.9889      16.144154      6809.3303      10112.159    
     51300   324.6712      -3245.7357     -3264.4949      18.75927       6779.3853      10112.159    
     51400   302.76891     -3245.9833     -3263.4771      17.493771      6971.9987      10112.159    
     51500   291.49768     -3246.5307     -3263.3732      16.842528      6734.8647      10112.159    
     51600   270.06498     -3248.1161     -3263.7203      15.604161      6456.0681      10112.159    
     51700   319.34545     -3247.5596     -3266.0112      18.451552      6292.2799      10112.159    
     51800   280.95125     -3247.1609     -3263.3941      16.233162      6649.4177      10112.159    
     51900   306.72998     -3245.6986     -3263.4213      17.722639      6724.5733      10112.159    
     52000   303.95128     -3245.6421     -3263.2042      17.562088      7014.0465      10112.159    
     52100   293.33261     -3246.5017     -3263.4502      16.948548      6775.067       10112.159    
     52200   310.49278     -3246.8837     -3264.8238      17.940051      6380.182       10112.159    
     52300   275.01912     -3247.5034     -3263.3938      15.890408      6606.5904      10112.159    
     52400   314.79623     -3246.6255     -3264.8142      18.188701      6738.7717      10112.159    
     52500   298.93835     -3245.4311     -3262.7035      17.272444      7259.3777      10112.159    
     52600   300.21717     -3245.0866     -3262.4329      17.346333      7164.1265      10112.159    
     52700   313.27551     -3245.965      -3264.0659      18.100835      6652.0493      10112.159    
     52800   291.02321     -3247.497      -3264.3121      16.815113      6413.3574      10112.159    
     52900   291.10218     -3247.3968     -3264.2164      16.819676      6470.3032      10112.159    
     53000   307.21296     -3246.3599     -3264.1105      17.750545      6621.2869      10112.159    
     53100   304.16743     -3245.6438     -3263.2183      17.574576      6672.481       10112.159    
     53200   312.10828     -3245.5895     -3263.6229      18.033393      6853.2412      10112.159    
     53300   304.50859     -3246.2107     -3263.805       17.594288      6729.5003      10112.159    
     53400   303.60585     -3246.3819     -3263.924       17.542129      6651.7414      10112.159    
     53500   306.8511      -3246.4725     -3264.2021      17.729637      6575.805       10112.159    
     53600   289.32464     -3246.6177     -3263.3347      16.716971      6894.1414      10112.159    
     53700   308.87207     -3245.9847     -3263.8311      17.846407      6835.8798      10112.159    
     53800   296.7556      -3246.0168     -3263.1632      17.146326      6766.5693      10112.159    
     53900   319.48235     -3245.4708     -3263.9302      18.459462      6730.2054      10112.159    
     54000   287.92795     -3245.9908     -3262.6271      16.636271      7020.5355      10112.159    
     54100   296.7415      -3247.0657     -3264.2113      17.145511      6580.1798      10112.159    
     54200   289.58161     -3247.9092     -3264.641       16.731818      6400.3232      10112.159    
     54300   289.85394     -3247.3677     -3264.1152      16.747553      6515.9958      10112.159    
     54400   311.09638     -3245.4772     -3263.4522      17.974927      6895.2396      10112.159    
     54500   301.87701     -3245.539      -3262.9813      17.442238      7048.8763      10112.159    
     54600   310.35218     -3246.0569     -3263.9888      17.931927      6846.8532      10112.159    
     54700   297.65813     -3247.1995     -3264.398       17.198474      6402.5995      10112.159    
     54800   289.22369     -3247.6808     -3264.392       16.711138      6534.3306      10112.159    
     54900   314.84402     -3246.5733     -3264.7647      18.191463      6493.2106      10112.159    
     55000   289.63858     -3245.1381     -3261.8732      16.73511       7309.7575      10112.159    
     55100   312.4918      -3245.1206     -3263.1762      18.055553      7091.762       10112.159    
     55200   304.74685     -3245.9475     -3263.5555      17.608055      6782.8667      10112.159    
     55300   304.53859     -3246.6716     -3264.2676      17.596022      6656.2961      10112.159    
     55400   279.33222     -3247.4802     -3263.6199      16.139616      6486.7469      10112.159    
     55500   304.53147     -3246.7854     -3264.381       17.595611      6516.4185      10112.159    
     55600   305.61354     -3244.5881     -3262.2462      17.658132      7557.6219      10112.159    
     55700   312.78552     -3244.4109     -3262.4835      18.072523      7076.58        10112.159    
     55800   318.77482     -3245.4304     -3263.849       18.418581      6913.4631      10112.159    
     55900   294.335       -3246.5992     -3263.6056      17.006466      6881.391       10112.159    
     56000   285.28929     -3247.0746     -3263.5584      16.483811      6737.8672      10112.159    
     56100   305.53217     -3246.8843     -3264.5378      17.65343       6454.8849      10112.159    
     56200   308.95028     -3245.9829     -3263.8338      17.850926      6833.4618      10112.159    
     56300   309.48109     -3244.7482     -3262.6298      17.881596      6896.6379      10112.159    
     56400   317.28939     -3244.5994     -3262.9321      18.332754      7101.6379      10112.159    
     56500   292.76392     -3246.5657     -3263.4814      16.91569       6745.022       10112.159    
     56600   287.14749     -3246.911      -3263.5021      16.591177      6687.6399      10112.159    
     56700   304.30626     -3246.5421     -3264.1247      17.582598      6827.9011      10112.159    
     56800   301.05072     -3246.2785     -3263.673       17.394495      6738.7036      10112.159    
     56900   312.02513     -3245.328      -3263.3566      18.028589      7097.1579      10112.159    
     57000   308.26977     -3245.0861     -3262.8977      17.811607      6981.2501      10112.159    
     57100   304.56467     -3246.1193     -3263.7169      17.597529      6640.6934      10112.159    
     57200   285.24401     -3247.6917     -3264.1729      16.481195      6731.8992      10112.159    
     57300   300.25655     -3247.6909     -3265.0395      17.348609      6199.4847      10112.159    
     57400   294.57037     -3246.7205     -3263.7406      17.020065      6760.3745      10112.159    
     57500   296.87621     -3245.8082     -3262.9615      17.153295      7050.0787      10112.159    
     57600   306.47185     -3245.9072     -3263.615       17.707724      6837.8613      10112.159    
     57700   300.35347     -3246.5307     -3263.8849      17.354209      6940.8322      10112.159    
     57800   281.56409     -3247.7465     -3264.0151      16.268572      6601.7346      10112.159    
     57900   291.46139     -3248.1587     -3264.9991      16.840431      6220.5704      10112.159    
     58000   292.77304     -3246.4209     -3263.3371      16.916217      6949.6372      10112.159    
     58100   314.68386     -3245.0685     -3263.2508      18.182208      6968.8959      10112.159    
     58200   319.7974      -3245.5218     -3263.9995      18.477665      6667.4122      10112.159    
     58300   284.38166     -3246.9872     -3263.4185      16.431369      6892.6519      10112.159    
     58400   299.78049     -3246.88       -3264.2011      17.321102      6705.287       10112.159    
     58500   285.14045     -3246.8149     -3263.2901      16.475211      6813.7733      10112.159    
     58600   316.25925     -3245.9101     -3264.1834      18.273233      6699.1035      10112.159    
     58700   311.44954     -3244.731      -3262.7263      17.995332      6928.7901      10112.159    
     58800   319.95743     -3244.853      -3263.3399      18.486912      6905.998       10112.159    
     58900   300.84084     -3246.6493     -3264.0317      17.382369      6535.071       10112.159    
     59000   287.81392     -3247.0438     -3263.6735      16.629683      6674.5399      10112.159    
     59100   296.74247     -3246.6253     -3263.7708      17.145568      6801.6953      10112.159    
     59200   327.07491     -3245.56       -3264.4581      18.898154      6602.7423      10112.159    
     59300   298.30859     -3245.5424     -3262.7785      17.236057      7180.021       10112.159    
     59400   292.97038     -3246.3522     -3263.2798      16.927619      6814.0158      10112.159    
     59500   283.15918     -3247.7034     -3264.0641      16.360735      6624.5974      10112.159    
     59600   293.71632     -3247.8276     -3264.7983      16.970719      6209.2773      10112.159    
     59700   298.9216      -3246.7194     -3263.9909      17.271476      6753.9512      10112.159    
     59800   309.52973     -3245.6033     -3263.4877      17.884406      7019.0718      10112.159    
     59900   301.57776     -3245.8357     -3263.2607      17.424947      6865.7101      10112.159    
     60000   293.6964      -3246.4455     -3263.415       16.969568      6933.6101      10112.159    
     60100   290.42154     -3247.544      -3264.3243      16.780349      6788.0289      10112.159    
     60200   291.7589      -3248.6259     -3265.4835      16.857621      6194.8749      10112.159    
     60300   290.51024     -3247.7551     -3264.5406      16.785474      6624.406       10112.159    
     60400   290.14735     -3246.3113     -3263.0758      16.764507      7070.2856      10112.159    
     60500   306.03511     -3245.5761     -3263.2586      17.68249       7058.7811      10112.159    
     60600   306.42733     -3245.5876     -3263.2927      17.705152      6849.4248      10112.159    
     60700   294.5582      -3246.5156     -3263.5349      17.019362      7039.9104      10112.159    
     60800   310.81835     -3247.4545     -3265.4133      17.958862      6142.519       10112.159    
     60900   276.4952      -3248.7435     -3264.7192      15.975695      6349.6989      10112.159    
     61000   284.86493     -3247.9526     -3264.4119      16.459292      6457.8913      10112.159    
     61100   286.77406     -3247.2047     -3263.7743      16.5696        6645.739       10112.159    
     61200   305.45408     -3246.163      -3263.8119      17.648918      6743.8968      10112.159    
     61300   306.79015     -3246.0289     -3263.755       17.726116      6851.8102      10112.159    
     61400   307.90273     -3246.1706     -3263.961       17.790399      6613.7514      10112.159    
     61500   289.01689     -3246.6403     -3263.3395      16.699189      6876.7619      10112.159    
     61600   289.96654     -3247.9657     -3264.7198      16.754059      6551.1019      10112.159    
     61700   293.4557      -3248.1066     -3265.0623      16.955661      6497.7083      10112.159    
     61800   305.88329     -3246.758      -3264.4317      17.673718      6516.4549      10112.159    
     61900   298.75286     -3245.7324     -3262.9941      17.261727      7039.8322      10112.159    
     62000   300.58702     -3245.868      -3263.2357      17.367703      6997.2288      10112.159    
     62100   290.83209     -3246.7044     -3263.5085      16.80407       6871.8149      10112.159    
     62200   301.355       -3246.8748     -3264.2869      17.412076      6667.2063      10112.159    
     62300   306.1977      -3246.3783     -3264.0702      17.691884      6965.266       10112.159    
     62400   311.10706     -3244.6592     -3262.6348      17.975543      7244.4221      10112.159    
     62500   314.73905     -3244.7012     -3262.8866      18.185397      7074.5191      10112.159    
     62600   303.72033     -3246.0325     -3263.5813      17.548743      6815.5448      10112.159    
     62700   293.83231     -3246.8894     -3263.8668      16.977421      6726.034       10112.159    
     62800   306.33721     -3246.8283     -3264.5283      17.699945      6406.8053      10112.159    
     62900   293.72634     -3246.4911     -3263.4624      16.971298      6933.9697      10112.159    
     63000   304.06082     -3245.0606     -3262.629       17.568417      7084.0476      10112.159    
     63100   312.28262     -3243.8381     -3261.8815      18.043467      7671.8272      10112.159    
     63200   309.89566     -3245.4456     -3263.3511      17.905549      6824.9729      10112.159    
     63300   298.52754     -3246.8669     -3264.1156      17.248708      6482.1874      10112.159    
     63400   321.9159      -3246.7049     -3265.305       18.600071      6518.0332      10112.159    
     63500   286.84284     -3246.6469     -3263.2205      16.573574      6766.1614      10112.159    
     63600   293.3163      -3245.9417     -3262.8893      16.947606      6952.1324      10112.159    
     63700   319.49563     -3245.3413     -3263.8015      18.460229      6671.556       10112.159    
     63800   313.88488     -3245.905      -3264.041       18.136044      6617.1534      10112.159    
     63900   287.57612     -3247.5338     -3264.1498      16.615943      6751.8884      10112.159    
     64000   290.88943     -3247.8052     -3264.6126      16.807383      6521.37        10112.159    
     64100   305.9072      -3246.7247     -3264.3998      17.675099      6684.328       10112.159    
     64200   304.91636     -3245.8885     -3263.5063      17.617849      6953.6567      10112.159    
     64300   301.79044     -3246.0302     -3263.4674      17.437236      6869.8629      10112.159    
     64400   297.38779     -3246.5435     -3263.7263      17.182854      6855.2001      10112.159    
     64500   296.93979     -3247.3458     -3264.5027      17.156969      6410.9006      10112.159    
     64600   258.14295     -3248.8452     -3263.7605      14.915315      6726.1739      10112.159    
     64700   303.58512     -3247.8825     -3265.4234      17.540931      6337.5701      10112.159    
     64800   296.58556     -3247.1481     -3264.2846      17.136502      6612.7685      10112.159    
     64900   279.88203     -3246.5261     -3262.6974      16.171383      7061.2546      10112.159    
     65000   325.93676     -3245.7057     -3264.5381      18.832393      6782.3141      10112.159    
     65100   292.01202     -3246.4107     -3263.2829      16.872246      6903.7478      10112.159    
     65200   293.45121     -3246.3866     -3263.342       16.955401      7008.1424      10112.159    
     65300   310.36666     -3246.2914     -3264.2242      17.932764      6902.1365      10112.159    
     65400   299.7734      -3247.6261     -3264.9468      17.320693      6372.0148      10112.159    
     65500   272.47301     -3248.9114     -3264.6546      15.743295      6553.5065      10112.159    
     65600   281.14746     -3248.141      -3264.3855      16.244499      6472.0494      10112.159    
     65700   299.06583     -3247.1626     -3264.4424      17.27981       6581.6528      10112.159    
     65800   298.70294     -3246.5368     -3263.7956      17.258842      6583.5018      10112.159    
     65900   318.31271     -3245.3511     -3263.743       18.391881      7006.6411      10112.159    
     66000   298.68651     -3245.5156     -3262.7735      17.257893      7064.5328      10112.159    
     66100   289.66088     -3246.3916     -3263.128       16.736399      7127.2572      10112.159    
     66200   299.91721     -3247.0086     -3264.3376      17.329002      6425.1582      10112.159    
     66300   303.45858     -3246.9239     -3264.4575      17.53362       6522.1508      10112.159    
     66400   288.05972     -3246.6979     -3263.3418      16.643884      6648.6006      10112.159    
     66500   295.07407     -3245.9026     -3262.9518      17.049169      7312.1668      10112.159    
     66600   311.18922     -3245.4361     -3263.4164      17.980291      6856.1032      10112.159    
     66700   303.09773     -3246.4617     -3263.9744      17.51277       6708.5034      10112.159    
     66800   286.41237     -3248.0834     -3264.6321      16.548702      6269.6307      10112.159    
     66900   302.3646      -3247.7234     -3265.1938      17.470411      6513.2617      10112.159    
     67000   292.75725     -3246.9951     -3263.9104      16.915304      6646.1338      10112.159    
     67100   289.27438     -3246.2168     -3262.9309      16.714067      7071.5617      10112.159    
     67200   305.93799     -3245.9543     -3263.6312      17.676878      6921.7336      10112.159    
     67300   304.06608     -3246.1329     -3263.7016      17.56872       6777.3707      10112.159    
     67400   304.71119     -3246.2385     -3263.8445      17.605995      6907.8807      10112.159    
     67500   275.79123     -3247.2789     -3263.214       15.93502       6797.9717      10112.159    
     67600   288.36391     -3248.1817     -3264.8432      16.661461      6483.472       10112.159    
     67700   285.85174     -3248.0483     -3264.5646      16.516309      6406.842       10112.159    
     67800   309.98907     -3246.007      -3263.9179      17.910947      6752.2155      10112.159    
     67900   292.65171     -3245.938      -3262.8472      16.909207      6906.9092      10112.159    
     68000   306.90057     -3245.9764     -3263.7089      17.732495      6924.9628      10112.159    
     68100   294.72572     -3246.6522     -3263.6812      17.029041      6717.5444      10112.159    
     68200   290.50325     -3247.5304     -3264.3155      16.78507       6557.7718      10112.159    
     68300   297.02611     -3247.6166     -3264.7786      17.161956      6286.2481      10112.159    
     68400   308.51317     -3245.9984     -3263.8241      17.82567       6780.0598      10112.159    
     68500   292.53473     -3245.1707     -3262.0732      16.902448      6907.2148      10112.159    
     68600   321.77611     -3245.2148     -3263.8068      18.591994      7092.7474      10112.159    
     68700   294.27746     -3246.5971     -3263.6003      17.003141      6586.4617      10112.159    
     68800   316.73493     -3246.6736     -3264.9743      18.300718      6611.0945      10112.159    
     68900   276.74276     -3246.9841     -3262.9741      15.989999      6652.2855      10112.159    
     69000   308.9283      -3246.1253     -3263.975       17.849656      6836.2063      10112.159    
     69100   299.45039     -3245.7714     -3263.0734      17.302029      6692.6107      10112.159    
     69200   318.74786     -3244.3979     -3262.8149      18.417024      6960.2689      10112.159    
     69300   321.19122     -3244.4463     -3263.0045      18.558199      7025.4613      10112.159    
     69400   301.22485     -3246.2953     -3263.6998      17.404557      6633.8859      10112.159    
     69500   290.42114     -3246.7836     -3263.5639      16.780326      6419.5612      10112.159    
     69600   296.80316     -3246.4982     -3263.6473      17.149074      6958.8145      10112.159    
     69700   316.14357     -3245.9853     -3264.2519      18.26655       6575.7476      10112.159    
     69800   310.59854     -3245.738      -3263.6842      17.946161      6882.8217      10112.159    
     69900   295.22021     -3245.8768     -3262.9344      17.057613      6777.2156      10112.159    
     70000   311.06258     -3246.2586     -3264.2316      17.972973      6592.829       10112.159    
     70100   293.81628     -3247.3364     -3264.3129      16.976495      6409.5001      10112.159    
     70200   284.12461     -3247.9301     -3264.3466      16.416516      6491.0877      10112.159    
     70300   302.8986      -3246.7992     -3264.3005      17.501264      6514.6197      10112.159    
     70400   296.99917     -3245.4864     -3262.6468      17.1604        6950.4257      10112.159    
     70500   302.10444     -3245.5271     -3262.9825      17.455378      7124.189       10112.159    
     70600   307.74798     -3246.3019     -3264.0833      17.781458      6681.2277      10112.159    
     70700   296.44676     -3247.1474     -3264.2759      17.128482      6321.0454      10112.159    
     70800   302.75313     -3247.1055     -3264.5984      17.492859      6667.7224      10112.159    
     70900   306.2451      -3245.6796     -3263.3742      17.694623      7052.9335      10112.159    
     71000   312.47189     -3244.7514     -3262.8058      18.054402      7162.7912      10112.159    
     71100   306.54589     -3245.3872     -3263.0992      17.712003      6837.3618      10112.159    
     71200   303.39        -3246.7501     -3264.2797      17.529657      6580.6612      10112.159    
     71300   285.08673     -3247.4186     -3263.8907      16.472108      6350.6427      10112.159    
     71400   296.9728      -3246.9222     -3264.0811      17.158876      6623.5317      10112.159    
     71500   308.01579     -3246.1584     -3263.9553      17.796932      7176.2762      10112.159    
     71600   314.65764     -3244.7001     -3262.8808      18.180693      7021.1637      10112.159    
     71700   333.01722     -3243.3898     -3262.6313      19.241497      7388.7654      10112.159    
     71800   308.95075     -3244.7214     -3262.5723      17.850954      7382.4674      10112.159    
     71900   298.7646      -3245.8366     -3263.099       17.262405      6932.7588      10112.159    
     72000   297.38726     -3246.7841     -3263.9669      17.182823      6590.6436      10112.159    
     72100   288.53225     -3247.3342     -3264.0054      16.671187      6631.2145      10112.159    
     72200   307.01285     -3246.5734     -3264.3124      17.738983      6751.53        10112.159    
     72300   307.6445      -3245.2555     -3263.0309      17.775479      6981.5923      10112.159    
     72400   321.69149     -3243.5755     -3262.1626      18.587104      7521.0077      10112.159    
     72500   327.04821     -3243.1898     -3262.0864      18.896612      7342.1357      10112.159    
     72600   321.2834      -3244.6333     -3263.1969      18.563525      7209.5861      10112.159    
     72700   306.45131     -3245.8307     -3263.5372      17.706538      6850.7257      10112.159    
     72800   291.82677     -3247.011      -3263.8725      16.861542      6610.8336      10112.159    
     72900   289.99685     -3247.402      -3264.1578      16.755811      6524.3178      10112.159    
     73000   290.2153      -3246.9627     -3263.7312      16.768433      6588.9791      10112.159    
     73100   313.60822     -3245.3858     -3263.5059      18.120059      6979.5096      10112.159    
     73200   308.05754     -3245.135      -3262.9343      17.799344      6986.8875      10112.159    
     73300   297.53047     -3245.7378     -3262.9289      17.191098      6977.5891      10112.159    
     73400   294.71527     -3246.8922     -3263.9206      17.028437      6556.6764      10112.159    
     73500   305.80428     -3247.2451     -3264.9143      17.669153      6491.4763      10112.159    
     73600   296.82153     -3247.0553     -3264.2054      17.150136      6633.5076      10112.159    
     73700   302.90473     -3246.2666     -3263.7682      17.501619      6624.0596      10112.159    
     73800   309.57631     -3245.5342     -3263.4213      17.887098      7016.8193      10112.159    
     73900   312.22228     -3245.585      -3263.6249      18.03998       6806.8891      10112.159    
     74000   292.85528     -3246.9287     -3263.8497      16.920969      6602.7629      10112.159    
     74100   286.94104     -3247.9563     -3264.5356      16.579248      6608.6821      10112.159    
     74200   287.70883     -3247.9287     -3264.5523      16.62361       6435.6308      10112.159    
     74300   310.13716     -3245.8764     -3263.7959      17.919504      6726.3178      10112.159    
     74400   307.63653     -3245.4124     -3263.1875      17.775019      6788.549       10112.159    
     74500   304.41844     -3245.7823     -3263.3713      17.58908       7053.3598      10112.159    
     74600   290.2861      -3246.9889     -3263.7614      16.772523      6665.5882      10112.159    
     74700   283.51682     -3247.687      -3264.0684      16.381399      6445.3466      10112.159    
     74800   326.42544     -3246.8578     -3265.7184      18.860629      6114.795       10112.159    
     74900   286.89581     -3246.6343     -3263.2109      16.576634      6815.4038      10112.159    
     75000   294.34128     -3246.3826     -3263.3894      17.006829      6939.0355      10112.159    
     75100   298.55662     -3246.4399     -3263.6903      17.250388      6832.9324      10112.159    
     75200   294.50857     -3246.5624     -3263.5789      17.016495      6888.7241      10112.159    
     75300   313.68197     -3245.7882     -3263.9125      18.12432       6644.8157      10112.159    
     75400   308.51994     -3245.4458     -3263.2718      17.826061      6866.6687      10112.159    
[...]
    281800   304.51986     -3246.229      -3263.824       17.59494       6752.1298      10112.159    
    281900   302.14879     -3246.63       -3264.0879      17.457941      6762.6094      10112.159    
    282000   289.02804     -3247.7651     -3264.4649      16.699833      6334.1148      10112.159    
    282100   286.1366      -3248.5594     -3265.0922      16.532768      6538.5014      10112.159    
    282200   284.55304     -3247.758      -3264.1992      16.441271      6586.3799      10112.159    
    282300   299.00324     -3246.1443     -3263.4205      17.276193      6891.5094      10112.159    
    282400   306.97664     -3245.9535     -3263.6904      17.736891      6701.9167      10112.159    
    282500   313.99504     -3246.3546     -3264.497       18.142409      6554.9321      10112.159    
    282600   289.5979      -3247.2461     -3263.9789      16.732759      6770.2247      10112.159    
    282700   285.02667     -3247.7647     -3264.2333      16.468637      6576.1465      10112.159    
    282800   289.47126     -3247.9181     -3264.6435      16.725443      6400.411       10112.159    
    282900   307.73753     -3246.5273     -3264.3081      17.780855      6729.4923      10112.159    
    283000   302.81737     -3245.6756     -3263.1722      17.496571      6775.589       10112.159    
    283100   302.06782     -3245.8145     -3263.2678      17.453262      7045.639       10112.159    
    283200   283.81459     -3246.9576     -3263.3562      16.398604      6889.6105      10112.159    
    283300   288.27492     -3247.7822     -3264.4385      16.656318      6514.1304      10112.159    
    283400   289.1477      -3248.734      -3265.4407      16.706747      6003.2803      10112.159    
    283500   288.01483     -3248.6683     -3265.3096      16.641291      6159.396       10112.159    
    283600   289.13747     -3247.0251     -3263.7312      16.706156      6628.4821      10112.159    
    283700   294.70919     -3246.2032     -3263.2313      17.028086      6933.3804      10112.159    
    283800   314.32694     -3245.7051     -3263.8667      18.161586      6870.6203      10112.159    
    283900   296.87103     -3246.2286     -3263.3816      17.152996      6930.7912      10112.159    
    284000   293.2171      -3247.4873     -3264.4292      16.941874      6578.0357      10112.159    
    284100   278.25783     -3248.424      -3264.5016      16.077539      6448.2735      10112.159    
    284200   288.13686     -3247.5353     -3264.1836      16.648342      6502.0727      10112.159    
    284300   313.33628     -3245.6727     -3263.7771      18.104346      6872.7546      10112.159    
    284400   303.72985     -3245.582      -3263.1313      17.549293      6900.1878      10112.159    
    284500   312.74541     -3245.8776     -3263.9478      18.070206      6627.3204      10112.159    
    284600   288.42146     -3247.0575     -3263.7223      16.664786      6738.139       10112.159    
    284700   294.88385     -3247.4671     -3264.5052      17.038178      6544.6372      10112.159    
    284800   290.37509     -3247.201      -3263.9787      16.777665      6633.0953      10112.159    
    284900   297.95797     -3245.5283     -3262.7441      17.215799      7039.9705      10112.159    
    285000   320.27121     -3245.1502     -3263.6552      18.505042      7023.4425      10112.159    
    285100   314.45053     -3245.8723     -3264.041       18.168727      6801.7331      10112.159    
    285200   276.52955     -3247.568      -3263.5457      15.977679      6639.5826      10112.159    
    285300   289.54401     -3247.4872     -3264.2169      16.729646      6674.2788      10112.159    
    285400   298.31017     -3247.0223     -3264.2585      17.236148      6583.0524      10112.159    
    285500   300.80263     -3246.3206     -3263.7008      17.380161      6606.2688      10112.159    
    285600   317.0891      -3244.8959     -3263.2171      18.321181      7204.5458      10112.159    
    285700   308.15166     -3244.9398     -3262.7446      17.804783      7283.5816      10112.159    
    285800   295.80472     -3245.7276     -3262.819       17.091385      7015.5764      10112.159    
    285900   309.84442     -3246.1515     -3264.0541      17.902589      6684.2669      10112.159    
    286000   319.68354     -3246.6915     -3265.1626      18.471086      6375.8845      10112.159    
    286100   274.63681     -3247.4399     -3263.3082      15.868319      6620.201       10112.159    
    286200   281.1533      -3246.8888     -3263.1337      16.244837      6982.0693      10112.159    
    286300   318.58517     -3245.3403     -3263.7479      18.407623      6767.6805      10112.159    
    286400   326.33968     -3244.777      -3263.6327      18.855673      6831.9226      10112.159    
    286500   293.41539     -3245.5716     -3262.5249      16.953331      6897.1434      10112.159    
    286600   292.96617     -3247.1401     -3264.0675      16.927376      6598.4026      10112.159    
    286700   290.49112     -3247.4265     -3264.2108      16.784369      6418.4174      10112.159    
    286800   304.42757     -3246.5932     -3264.1828      17.589607      6532.0703      10112.159    
    286900   310.78574     -3245.717      -3263.674       17.956978      6928.4187      10112.159    
    287000   292.29466     -3245.716      -3262.6045      16.888576      7077.3267      10112.159    
    287100   290.61904     -3246.3175     -3263.1093      16.791761      6863.4405      10112.159    
    287200   300.20002     -3247.5192     -3264.8645      17.345342      6347.3649      10112.159    
    287300   286.93952     -3248.1913     -3264.7705      16.57916       6315.1925      10112.159    
    287400   309.0471      -3246.9205     -3264.7771      17.85652       6478.8429      10112.159    
    287500   291.50724     -3245.7515     -3262.5946      16.84308       7060.4358      10112.159    
    287600   293.09499     -3245.8407     -3262.7756      16.934819      7102.369       10112.159    
    287700   301.9767      -3246.6356     -3264.0836      17.447998      6678.3568      10112.159    
    287800   297.29322     -3247.2743     -3264.4517      17.17739       6705.8048      10112.159    
    287900   301.44663     -3247.0363     -3264.4537      17.417371      6657.6103      10112.159    
    288000   306.14068     -3245.5449     -3263.2334      17.68859       7161.9132      10112.159    
    288100   313.20459     -3244.7091     -3262.8058      18.096737      7189.6232      10112.159    
    288200   292.72396     -3245.7595     -3262.6729      16.913381      7026.2891      10112.159    
    288300   290.0181      -3246.8174     -3263.5745      16.757038      6929.5957      10112.159    
    288400   309.25693     -3246.8322     -3264.7009      17.868644      6516.7085      10112.159    
    288500   294.73453     -3246.7163     -3263.7459      17.02955       6703.9842      10112.159    
    288600   296.38202     -3246.202      -3263.3268      17.124741      6907.3484      10112.159    
    288700   307.46139     -3244.841      -3262.6059      17.764899      7220.4126      10112.159    
    288800   317.31825     -3243.9098     -3262.2443      18.334421      7289.2598      10112.159    
    288900   324.47318     -3245.2727     -3264.0206      18.747828      6780.3714      10112.159    
    289000   310.74679     -3246.2037     -3264.1584      17.954727      6775.3747      10112.159    
    289100   278.80882     -3246.9705     -3263.0799      16.109374      6967.3737      10112.159    
    289200   296.53432     -3246.9461     -3264.0796      17.133541      6795.3203      10112.159    
    289300   308.56146     -3246.2676     -3264.0961      17.82846       6709.3912      10112.159    
    289400   311.50166     -3245.1439     -3263.1422      17.998343      7146.746       10112.159    
    289500   314.00137     -3244.9127     -3263.0554      18.142775      7327.2355      10112.159    
    289600   286.45994     -3246.5543     -3263.1057      16.551451      6797.8958      10112.159    
    289700   286.47255     -3247.5775     -3264.1296      16.552179      6638.6231      10112.159    
    289800   300.96904     -3247.3014     -3264.6912      17.389776      6382.9474      10112.159    
    289900   306.14223     -3246.5109     -3264.1996      17.688679      6641.477       10112.159    
    290000   295.68231     -3246.1978     -3263.2822      17.084313      6778.8868      10112.159    
    290100   301.81598     -3246.1009     -3263.5396      17.438711      7013.8005      10112.159    
    290200   293.63194     -3246.5007     -3263.4666      16.965844      6890.3884      10112.159    
    290300   301.52297     -3246.3963     -3263.8181      17.421782      6743.2875      10112.159    
    290400   323.13087     -3245.7595     -3264.4298      18.670271      6850.353       10112.159    
    290500   298.20262     -3245.4867     -3262.7166      17.229934      6901.8312      10112.159    
    290600   306.47624     -3245.5029     -3263.2109      17.707978      6916.6971      10112.159    
    290700   310.60455     -3246.6622     -3264.6087      17.946509      6632.0794      10112.159    
    290800   297.98649     -3247.3723     -3264.5898      17.217446      6412.8409      10112.159    
    290900   293.30092     -3246.9269     -3263.8736      16.946717      6700.6837      10112.159    
    291000   289.26013     -3245.8752     -3262.5884      16.713243      7435.4125      10112.159    
    291100   322.50546     -3244.3523     -3262.9864      18.634135      7096.3809      10112.159    
    291200   323.51504     -3244.6327     -3263.3252      18.692468      7147.0627      10112.159    
    291300   308.06838     -3245.8719     -3263.6718      17.799971      7119.9199      10112.159    
    291400   289.33804     -3246.5969     -3263.3146      16.717745      6925.5481      10112.159    
    291500   301.17641     -3246.7611     -3264.1628      17.401758      6614.1173      10112.159    
    291600   296.37149     -3246.5699     -3263.694       17.124133      6774.3115      10112.159    
    291700   313.5699      -3245.6906     -3263.8085      18.117845      6741.1751      10112.159    
    291800   312.43304     -3245.412      -3263.4641      18.052157      6997.2304      10112.159    
    291900   285.91303     -3246.7682     -3263.288       16.519851      7002.2882      10112.159    
    292000   281.89185     -3247.5529     -3263.8404      16.287509      6736.6329      10112.159    
    292100   297.36712     -3247.2687     -3264.4503      17.181659      6505.0976      10112.159    
    292200   315.79262     -3245.6814     -3263.9276      18.246272      6879.378       10112.159    
    292300   304.91167     -3244.9713     -3262.5889      17.617578      7096.3392      10112.159    
    292400   309.40302     -3245.6015     -3263.4786      17.877085      7121.2311      10112.159    
    292500   297.51185     -3246.8919     -3264.0819      17.190022      6482.8883      10112.159    
    292600   282.12925     -3247.2586     -3263.5598      16.301226      6652.9772      10112.159    
    292700   310.752       -3246.6224     -3264.5774      17.955028      6547.239       10112.159    
    292800   302.45892     -3246.3641     -3263.84        17.47586       6926.6291      10112.159    
    292900   288.50864     -3246.2603     -3262.9301      16.669823      7001.3552      10112.159    
    293000   297.35135     -3246.34       -3263.5208      17.180748      6969.8838      10112.159    
    293100   317.14931     -3246.2475     -3264.5721      18.32466       6608.1832      10112.159    
    293200   295.01545     -3246.7816     -3263.8274      17.045782      6650.6485      10112.159    
    293300   306.71816     -3246.7182     -3264.4402      17.721956      6545.953       10112.159    
    293400   313.84011     -3245.2834     -3263.4168      18.133457      7085.7224      10112.159    
    293500   299.4113      -3244.7621     -3262.0618      17.299771      7235.6524      10112.159    
    293600   308.10447     -3245.6339     -3263.436       17.802056      6968.7092      10112.159    
    293700   303.63638     -3246.9959     -3264.5398      17.543893      6457.026       10112.159    
    293800   303.15912     -3247.0502     -3264.5665      17.516317      6473.1044      10112.159    
    293900   292.48816     -3246.6924     -3263.5921      16.899757      6958.2027      10112.159    
    294000   306.73604     -3245.4706     -3263.1936      17.722989      7164.6242      10112.159    
    294100   312.20971     -3244.4282     -3262.4674      18.039254      7373.3464      10112.159    
    294200   301.75221     -3245.1473     -3262.5823      17.435027      6963.9062      10112.159    
    294300   305.37623     -3246.8956     -3264.54        17.64442       6731.5036      10112.159    
    294400   290.33576     -3247.6707     -3264.4461      16.775392      6303.073       10112.159    
    294500   291.4461      -3247.3286     -3264.1681      16.839547      6710.0854      10112.159    
    294600   310.85915     -3245.9868     -3263.948       17.961219      6738           10112.159    
    294700   301.16097     -3245.4538     -3262.8547      17.400866      7038.6671      10112.159    
    294800   312.73969     -3245.5231     -3263.593       18.069876      6979.2493      10112.159    
    294900   291.82583     -3246.5906     -3263.4521      16.861488      6732.7805      10112.159    
    295000   289.40935     -3246.9842     -3263.7061      16.721865      6678.8239      10112.159    
    295100   306.40809     -3246.9437     -3264.6478      17.70404       6563.5385      10112.159    
    295200   299.00863     -3246.805      -3264.0815      17.276505      6549.0569      10112.159    
    295300   297.04356     -3246.1491     -3263.312       17.162964      6634.4362      10112.159    
    295400   312.12598     -3245.495      -3263.5294      18.034416      6862.5421      10112.159    
    295500   300.43858     -3245.8496     -3263.2087      17.359126      7086.4994      10112.159    
    295600   290.43475     -3247.1063     -3263.8874      16.781112      6800.5515      10112.159    
    295700   299.33198     -3247.7885     -3265.0836      17.295188      6339.5034      10112.159    
    295800   270.37608     -3248.4955     -3264.1177      15.622137      6492.0164      10112.159    
    295900   296.96044     -3247.2055     -3264.3636      17.158162      6603.9357      10112.159    
    296000   311.34819     -3245.8959     -3263.8854      17.989476      6827.8929      10112.159    
    296100   299.63238     -3245.7627     -3263.0752      17.312545      6856.0131      10112.159    
    296200   327.5504      -3245.472      -3264.3976      18.925628      6854.4602      10112.159    
    296300   275.83771     -3246.8091     -3262.7468      15.937705      6872.3412      10112.159    
    296400   306.36629     -3247.5625     -3265.2642      17.701625      6240.6677      10112.159    
    296500   287.05647     -3247.667      -3264.2529      16.585917      6542.1187      10112.159    
    296600   295.06888     -3246.8319     -3263.8808      17.048869      6805.9427      10112.159    
    296700   298.56129     -3246.5567     -3263.8074      17.250658      6808.0154      10112.159    
    296800   300.65221     -3246.3266     -3263.698       17.37147       6870.9092      10112.159    
    296900   309.998       -3245.866      -3263.7775      17.911463      6635.0551      10112.159    
    297000   317.48851     -3245.1714     -3263.5157      18.344259      6935.4583      10112.159    
    297100   292.67938     -3245.3702     -3262.281       16.910805      7293.2893      10112.159    
    297200   301.41063     -3246.511      -3263.9263      17.41529       6763.0717      10112.159    
    297300   297.93971     -3247.4966     -3264.7113      17.214743      6640.715       10112.159    
    297400   281.10672     -3247.7062     -3263.9484      16.242145      6352.3713      10112.159    
    297500   305.73398     -3246.3643     -3264.0294      17.66509       6810.4109      10112.159    
    297600   295.04103     -3245.9352     -3262.9825      17.04726       7004.9496      10112.159    
    297700   313.55697     -3245.8523     -3263.9694      18.117097      6898.7984      10112.159    
    297800   294.34708     -3246.58       -3263.5872      17.007164      7024.3377      10112.159    
    297900   298.51461     -3247.2861     -3264.5341      17.247961      6589.6286      10112.159    
    298000   271.17838     -3248.485      -3264.1535      15.668493      6575.0395      10112.159    
    298100   294.51143     -3248.0881     -3265.1048      17.01666       6264.1795      10112.159    
    298200   302.91646     -3246.3512     -3263.8535      17.502296      6814.1258      10112.159    
    298300   313.86724     -3245.6541     -3263.7892      18.135025      6670.2815      10112.159    
    298400   298.16627     -3245.7939     -3263.0217      17.227834      7026.6611      10112.159    
    298500   303.68438     -3246.4017     -3263.9484      17.546666      6598.3958      10112.159    
    298600   282.83009     -3248.0629     -3264.4046      16.34172       6468.282       10112.159    
    298700   291.4663      -3247.9699     -3264.8106      16.840714      6324.3319      10112.159    
    298800   289.22544     -3247.155      -3263.8663      16.711239      6698.4188      10112.159    
    298900   299.72092     -3246.4744     -3263.792       17.31766       6731.3005      10112.159    
    299000   299.98831     -3246.2513     -3263.5844      17.33311       6661.0644      10112.159    
    299100   305.19809     -3246.2602     -3263.8943      17.634127      6838.7218      10112.159    
    299200   285.66548     -3247.0944     -3263.5999      16.505547      6687.4791      10112.159    
    299300   283.61351     -3248.0556     -3264.4426      16.386986      6437.3367      10112.159    
    299400   295.15719     -3248.1953     -3265.2492      17.053971      6298.5427      10112.159    
    299500   288.9037      -3247.088      -3263.7806      16.692649      6615.0837      10112.159    
    299600   309.97308     -3245.5264     -3263.4364      17.910023      7021.7159      10112.159    
    299700   289.17875     -3245.7814     -3262.4899      16.708541      7034.5688      10112.159    
    299800   306.54274     -3246.253      -3263.9648      17.71182       6751.4618      10112.159    
    299900   300.93322     -3247.3912     -3264.7789      17.387706      6442.6313      10112.159    
    300000   264.57971     -3248.4038     -3263.691       15.287226      6591.5315      10112.159    
Loop time of 2268.15 on 20 procs for 300000 steps with 448 atoms

Performance: 11.428 ns/day, 2.100 hours/ns, 132.266 timesteps/s, 59.255 katom-step/s
99.9% CPU use with 20 MPI tasks x 1 OpenMP threads

MPI task timing breakdown:
Section |  min time  |  avg time  |  max time  |%varavg| %total
---------------------------------------------------------------
Pair    | 1745.8     | 2000.8     | 2160       | 417.1 | 88.21
Neigh   | 20.352     | 28.532     | 36.024     | 121.9 |  1.26
Comm    | 71.87      | 235.72     | 499.05     |1257.5 | 10.39
Output  | 0.36642    | 0.59534    | 0.6646     |   7.8 |  0.03
Modify  | 2.1183     | 2.2418     | 2.5        |   6.5 |  0.10
Other   |            | 0.2902     |            |       |  0.01

Nlocal:           22.4 ave          24 max          18 min
Histogram: 1 2 0 2 0 2 1 0 0 12
Nghost:            497 ave         522 max         466 min
Histogram: 4 0 0 4 4 0 0 0 0 8
Neighs:              0 ave           0 max           0 min
Histogram: 20 0 0 0 0 0 0 0 0 0
FullNghs:       1280.8 ave        1384 max        1025 min
Histogram: 1 2 0 2 1 1 1 0 0 12

Total # of neighbors = 25616
Ave neighs/atom = 57.178571
Neighbor list builds = 300000
Dangerous builds not checked
Total wall time: 0:37:48
