ITEM: TIMESTEP
0
ITEM: NUMBER OF ATOMS
108
ITEM: BOX BOUNDS pp pp pp
0.0000000000000000e+00 1.0956000000000000e+01
0.0000000000000000e+00 1.0956000000000000e+01
0.0000000000000000e+00 1.0629000000000000e+01
ITEM: ATOMS id type x y z fx fy fz vx vy vz
   1 1    1.949842609999999920589175417    1.612389480000000041570729081    2.246311500000000016541434888    0.293402833063487467057939284    2.239146379115608986865026964    3.580599125812594429874025082    0.000000000000000000000000000    0.000000000000000000000000000    0.000000000000000000000000000
   2 1    3.231099480000000134793936013    7.291757800000000067086602940   10.610181889999999782503437018    2.501936631996758197971075788    0.307913102115127235158809071   -1.481139367011550911357176119    0.000000000000000000000000000    0.000000000000000000000000000    0.000000000000000000000000000
   3 1    5.086749189999999920530626696    5.374359089999999561371168966    2.243068689999999865136715016    0.985963386545444908648505589    1.262312973900376444902349249   -0.072487873330561169993302428    0.000000000000000000000000000    0.000000000000000000000000000    0.000000000000000000000000000
   4 1    8.926571369999999561173353868    5.120659540000000120585355035    7.824784519999999687911440560    2.286952886142450402928716358    1.810723931535052066976732021    2.977849220988378675656349515    0.000000000000000000000000000    0.000000000000000000000000000    0.000000000000000000000000000
   5 1    0.259272100000000005337597031    7.013375589999999881740677665    5.330541819999999653134636901   -0.543594443692202777818067716    4.861722021239647695267649397   -1.715949444360289621869242183    0.000000000000000000000000000    0.000000000000000000000000000    0.000000000000000000000000000
   6 1   10.736598759999999685987859266   10.880092780000000018958417058   10.615321330000000443760654889    0.232376775227769893916729416    1.527268671953426082410487652    0.694939003519862930069450613    0.000000000000000000000000000    0.000000000000000000000000000    0.000000000000000000000000000
   7 1    7.188178240000000052134510042    3.548039900000000024249402486    5.141905020000000270385953627   -0.800288358943190836214398587   -2.297890908236700280298236976    0.372105461978517348953232613    0.000000000000000000000000000    0.000000000000000000000000000    0.000000000000000000000000000
   8 1    7.268007279999999958874923323    7.106965690000000002157776180    5.450533870000000113975602289   -1.746547060340882806528384208   -0.141205158268609520799685697   -0.573534145788687332867539226    0.000000000000000000000000000    0.000000000000000000000000000    0.000000000000000000000000000
   9 1    1.649426459999999927674707578    5.283368300000000239435848925    2.643377239999999961383991831   -0.764459724820051311766633262    0.115110359890095992341230158   -0.669451999832346267282900953    0.000000000000000000000000000    0.000000000000000000000000000    0.000000000000000000000000000
  10 1   10.728394910000000450622792414    3.264657810000000104366790765    5.312207639999999564395238849    3.615854810890023252056835190    2.568934985752906907663373204   -2.897095773887391700895932445    0.000000000000000000000000000    0.000000000000000000000000000    0.000000000000000000000000000
  11 1   10.823574170000000549407559447    3.635197509999999798679937157    0.193662289999999986944700936    0.249308763262170884900115198    0.591322008741875571047330595   -2.150931094053168735058534367    0.000000000000000000000000000    0.000000000000000000000000000    0.000000000000000000000000000
  12 1    1.935424840000000035189486880    5.151987680000000402458226745    7.793367530000000265033577307    0.208403997049662392804236788    2.413213285143747555139270844   -0.679656795932558122075306528    0.000000000000000000000000000    0.000000000000000000000000000    0.000000000000000000000000000
  13 1    8.946162779999999870028659643    9.047340889999999191672941379    8.007849059999999852266228118    0.630809516313512230745175202   -0.442214082897707250197072426    0.125487106146340010592865610    0.000000000000000000000000000    0.000000000000000000000000000    0.000000000000000000000000000
  14 1    1.709807159999999992550101524    1.689404459999999996711039785    7.930354720000000412483132095    0.205739046434882055791604216    0.550114779854264379643780103    2.215433408384096303223032010    0.000000000000000000000000000    0.000000000000000000000000000    0.000000000000000000000000000
  15 1    7.389370719999999614913122059    7.287011009999999622266386723   10.475857899999999389706317743   -2.196435899147126669106455665   -0.263566395328454827762243440    1.076394770686859736485985195    0.000000000000000000000000000    0.000000000000000000000000000    0.000000000000000000000000000
  16 1    8.730777129999999885967554292    9.039344870000000753407221055    2.951338380000000150005234900    1.162208991531974877631228082   -0.935307863517994997337723362   -2.698055954762396790869161123    0.000000000000000000000000000    0.000000000000000000000000000    0.000000000000000000000000000
  17 1    5.078994640000000337920482707    8.986125330000000133168214234    2.419384029999999796700649313    1.684557264487202221658890267   -0.625105723806162139055686566    0.431412996699443662684814171    0.000000000000000000000000000    0.000000000000000000000000000    0.000000000000000000000000000
  18 1    5.442605880000000340146470990    9.307152459999999294382178050    7.983922330000000400218596042   -4.855198587304126789376823581   -4.779782179960356813808175502    0.763208956233433433169466298    0.000000000000000000000000000    0.000000000000000000000000000    0.000000000000000000000000000
  19 1   10.950757330000000067116161517   10.751653069999999701167325838    5.300467379999999728568127466   -1.304826932016541096714945525    0.428037626096496648386846573   -2.426319950196631936023550224    0.000000000000000000000000000    0.000000000000000000000000000    0.000000000000000000000000000
  20 1    3.527675219999999889353148319    3.473559589999999808185293659    5.181676829999999789322373545   -0.495331986851880845534878972   -0.122787809212773380007632795   -1.191473118231244354703335375    0.000000000000000000000000000    0.000000000000000000000000000    0.000000000000000000000000000
  21 1   10.953803869999999776041477162    7.294074010000000107822870632   10.325891739999999430210664286   -3.631564936565359058562307837   -2.526096787089059603204077575   -1.021359714750102121172403713    0.000000000000000000000000000    0.000000000000000000000000000    0.000000000000000000000000000
  22 1    1.645627900000000032321167964    9.098723429999999723349901615    7.931848419999999677543200960    1.696801701713824828132715083   -0.887895356984136574496346839   -0.772838187948354016221230722    0.000000000000000000000000000    0.000000000000000000000000000    0.000000000000000000000000000
  23 1    7.240641379999999571737134829    3.782527120000000131483375299    0.074847079999999996391402135    0.608236820980355696875108151   -3.226373492381369167958382604   -1.631082539713684553817074629    0.000000000000000000000000000    0.000000000000000000000000000    0.000000000000000000000000000
  24 1    8.949955629999999828783074918    5.408037069999999779668087285    2.687265660000000000451336746    0.974024687757209406413494435    0.874399103187727178010391071   -0.667258019504386234999060434    0.000000000000000000000000000    0.000000000000000000000000000    0.000000000000000000000000000
  25 1    3.823680369999999939523149806    6.990410719999999855645000935    4.813164610000000287470811600   -1.883916039446585255490163036    0.467137126644807776365553309    2.689600570221335917864280418    0.000000000000000000000000000    0.000000000000000000000000000    0.000000000000000000000000000
  26 1    3.773733179999999798326371092    0.046673979999999996859383344    0.022074630000000001334159450   -2.842628053235570106949126057   -2.386081331100140534573483819   -0.361959831114932795159688794    0.000000000000000000000000000    0.000000000000000000000000000    0.000000000000000000000000000
  27 1    7.199962629999999919050424069    0.072845460000000000766462449    5.242678149999999703823050368    2.065397679905473626860157310   -1.952139432735968682663951768   -1.497596003088058846941521551    0.000000000000000000000000000    0.000000000000000000000000000    0.000000000000000000000000000
  28 1    5.669625810000000321053903463    1.624243869999999922981714917    2.625673690000000171096417034   -1.448893696106054562733334024   -1.418712970232643755252865958    0.922935928026241469979140675    0.000000000000000000000000000    0.000000000000000000000000000    0.000000000000000000000000000
  29 1    5.349467930000000315260422212    1.725043019999999982516669661    7.581398270000000216839453060    1.924702668496034663192517655    0.665321491223405114823208351    1.768679439531374075755820741    0.000000000000000000000000000    0.000000000000000000000000000    0.000000000000000000000000000
  30 1    1.425602280000000110504743134    8.986638729999999242181729642    2.579601010000000194111180463   -1.924285320134240917511192492    3.211294501696999148521172174   -0.728699215801465793873603616    0.000000000000000000000000000    0.000000000000000000000000000    0.000000000000000000000000000
  31 1    3.329988769999999931314960122   10.934126239999999441465661221    5.250665520000000086042746261    3.444621102026864001288686268   -1.784176906115869876146007300   -1.263009699991299417121126680    0.000000000000000000000000000    0.000000000000000000000000000    0.000000000000000000000000000
  32 1    3.735774800000000173128000824    3.610602720000000154243480210   10.216593100000000760019247537   -2.351832789761225228630792117   -0.757803815171417705087719696   -2.027382626622498573709663106    0.000000000000000000000000000    0.000000000000000000000000000    0.000000000000000000000000000
  33 1    7.181718260000000242371243075   10.953563819999999395804479718   10.547285739999999520932760788    3.886770464302179650672997013    1.751753887273372001232019102   -2.169945948062713458881489714    0.000000000000000000000000000    0.000000000000000000000000000    0.000000000000000000000000000
  34 1    9.036333499999999574470166408    1.791452480000000013760086404    2.522221519999999994610107024    0.891340209199349864377381891    0.073680518099119546304720529    1.946413984689267628880315897    0.000000000000000000000000000    0.000000000000000000000000000    0.000000000000000000000000000
  35 1    5.442805159999999808917436894    5.475869389999999725660018157    7.883840089999999634073901689   -1.837659362043656541274572191    0.173655602867949371281852677   -1.154557610718853766229585744    0.000000000000000000000000000    0.000000000000000000000000000    0.000000000000000000000000000
  36 1    9.049765450000000654995346849    1.700167640000000091049514594    7.771384630000000015570549294   -1.169521821239732251029863619   -0.431289452930966099586385099    3.340006929159558879405267362    0.000000000000000000000000000    0.000000000000000000000000000    0.000000000000000000000000000
  37 2   10.505774900000000471322891826    9.584548079999999359301909863    1.647642320000000104585069494    0.979024580854801595997116692   -0.357809761056677388957325547   -1.010232558981144279641739558    0.000000000000000000000000000    0.000000000000000000000000000    0.000000000000000000000000000
  38 2    5.069864789999999565850430372    7.108639110000000371769601770    3.365243969999999862352524360    2.978970631120247958278923761   -0.168781711921178523283515460   -2.179643560428703441544939778    0.000000000000000000000000000    0.000000000000000000000000000    0.000000000000000000000000000
  39 2   10.824998340000000496274878969    5.572166600000000080683548731    4.057715560000000110107976070    0.539253594917838530164999611   -2.986329713234998628479388572   -0.922541672044617011572142928    0.000000000000000000000000000    0.000000000000000000000000000    0.000000000000000000000000000
  40 2   10.520126610000000155764610099    1.731661099999999953169549372    4.229479139999999581789325021    1.235501522531728291198760417   -1.929916454469373210400817698   -0.012490556007788811143655039    0.000000000000000000000000000    0.000000000000000000000000000    0.000000000000000000000000000
  41 2    1.762981340000000063383822635   10.869558259999999805245352036    3.884804799999999946891193758    0.142188526026555045467247851    1.419441320359279501417404390   -1.674997702872196736478827006    0.000000000000000000000000000    0.000000000000000000000000000    0.000000000000000000000000000
  42 2    1.702418549999999974886577547    0.084679030000000002353921502    1.168723490000000087007947513   -0.630099315274198823466633712   -0.773626192086624531185634623   -2.725300382943903976240562770    0.000000000000000000000000000    0.000000000000000000000000000    0.000000000000000000000000000
  43 2    2.122603059999999874918330534    3.981060900000000124521193356    0.674087349999999974059505803   -2.101466300240333762161526465   -1.404944968880691646972991293    1.262597743731083799190173522    0.000000000000000000000000000    0.000000000000000000000000000    0.000000000000000000000000000
  44 2    0.449506379999999983176905971    1.935586440000000019168169274    9.725751620000000485788405058   -0.482277699950307336962396221   -0.880419454445556359800661994   -0.393653929643811517635754171    0.000000000000000000000000000    0.000000000000000000000000000    0.000000000000000000000000000
  45 2    1.744104050000000016851231521   10.828521350000000822433321446    8.973917809999999661840774934   -0.278695357443992097756790827    0.293017076592609559959612398   -0.163782634868010257278569952    0.000000000000000000000000000    0.000000000000000000000000000    0.000000000000000000000000000
  46 2    1.757487570000000109970983431   10.475639879999999237725205603    6.272265479999999726601345174   -4.030348463821182392052833166    1.458435554366459108166509395    1.146169883643669340500537146    0.000000000000000000000000000    0.000000000000000000000000000    0.000000000000000000000000000
  47 2   10.954229399999999117198967724    1.810007230000000078007360571    6.749824539999999650774498150    0.831103069795072535441704531   -1.013303815082384762291667357    1.537691165452607311436850068    0.000000000000000000000000000    0.000000000000000000000000000    0.000000000000000000000000000
  48 2    1.884323650000000016646595213    3.387104480000000084061184680    3.323790339999999954301301841   -1.180450493517644527941001797   -0.420556708505335274939085366    1.020718356228709433608514701    0.000000000000000000000000000    0.000000000000000000000000000    0.000000000000000000000000000
  49 2    1.471964999999999967883468344    7.533258390000000304098648485    0.959705699999999994886934473   -0.305318167375415949749140054    0.948773796865647445208935551    0.044459113114075687889226174    0.000000000000000000000000000    0.000000000000000000000000000    0.000000000000000000000000000
  50 2    1.806305309999999941794612823    7.192859089999999788744844409    8.943021319999999718675098848   -0.115927374116829740025025330    1.581800358119074267904125008   -0.015886460709519059641969818    0.000000000000000000000000000    0.000000000000000000000000000    0.000000000000000000000000000
  51 2   10.728629149999999725650923210    2.286713419999999885590113990    1.623963349999999916661863608    4.157334061158064031360481749   -0.435274320503823863859338417    0.408804753153839350865439428    0.000000000000000000000000000    0.000000000000000000000000000    0.000000000000000000000000000
  52 2    3.747839110000000140132669912    5.108256250000000164845914696    6.455353299999999627800661983   -2.048631200285550679751622738    2.781154653586925373787153148    2.419756362926382742273290205    0.000000000000000000000000000    0.000000000000000000000000000    0.000000000000000000000000000
  53 2    3.510420620000000102578496808    1.652877710000000055501345742    6.734096059999999717149421485   -1.571582665022582592229127840    0.157739771443348802959505406    0.335049393522060923178429448    0.000000000000000000000000000    0.000000000000000000000000000    0.000000000000000000000000000
  54 2    5.390971229999999891902007221    3.505739549999999926654936644    8.697857909999999748151822132   -0.399720259249398968126598675    0.844611939116185261866576184   -0.308832332391998753973183511    0.000000000000000000000000000    0.000000000000000000000000000    0.000000000000000000000000000
  55 2   10.832870989999999977726474754    5.284404519999999827462033863    1.480132250000000038170355765   -0.014675557337198941176836797   -0.025287839716971682868518201   -0.081569787145270855610590388    0.000000000000000000000000000    0.000000000000000000000000000    0.000000000000000000000000000
  56 2    2.362215270000000089112290880    7.519582889999999686381215724    5.950428709999999732360720373   -3.901498456830814198781354207    0.052727751619074947342369342    1.496996379248149322549465978    0.000000000000000000000000000    0.000000000000000000000000000    0.000000000000000000000000000
  57 2   10.852983580000000074505805969    8.615023479999999622691575496    6.894661560000000299908151646    0.080104108903909010397370594    1.576986225075690972730058093    0.520407474544014925221802059    0.000000000000000000000000000    0.000000000000000000000000000    0.000000000000000000000000000
  58 2    3.876222059999999913770807325    1.663074890000000083389863903    4.104410670000000038726284401   -1.155876278773176668579480975   -0.349369077608877587337588011    0.744518515493985177933211617    0.000000000000000000000000000    0.000000000000000000000000000    0.000000000000000000000000000
  59 2    5.867386759999999590320385323   10.671627049999999670149009035    3.376312050000000120064669318    0.853833199887039540065813981    0.669943787849370142595262223    0.193123277992922393053731867    0.000000000000000000000000000    0.000000000000000000000000000    0.000000000000000000000000000
  60 2    5.511657709999999710248630436   10.654014509999999660294633941    0.752216140000000033083438211   -1.964035687081171932533152358   -1.047175225616174154552595610    2.238567234772175229551294251    0.000000000000000000000000000    0.000000000000000000000000000    0.000000000000000000000000000
  61 2    3.900288890000000119329115478    1.674056640000000095724885796    1.640563510000000002619913175   -1.993570148496137006688400106   -0.587544094220588730692611534   -2.171913425333818814522146567    0.000000000000000000000000000    0.000000000000000000000000000    0.000000000000000000000000000
  62 2    3.614812999999999831857167010    1.621164360000000081996063273    9.540652789999999328074409277    0.693299460314960702689290883    0.885519877379885356205591052   -0.954017444771130707081852051    0.000000000000000000000000000    0.000000000000000000000000000    0.000000000000000000000000000
  63 2    5.788870469999999990307060216    0.010757700000000000248312482    8.840197870000000790469130152   -1.116529215583740519690536530    1.800981006747662149791722186    0.127113729311689738210588985    0.000000000000000000000000000    0.000000000000000000000000000    0.000000000000000000000000000
  64 2   10.896863350000000281170287053    9.156391100000000449199433206    9.644156830000000013569660950    0.343983335807173218334753528   -1.317977933393256195770959494   -1.441895239238783599233784116    0.000000000000000000000000000    0.000000000000000000000000000    0.000000000000000000000000000
  65 2    3.484418849999999956423835101    5.083448579999999772383034724    3.793037729999999996266524249    0.776182295824482171298086541    0.593183379803397303753342840    0.960672243910005385636452502    0.000000000000000000000000000    0.000000000000000000000000000    0.000000000000000000000000000
  66 2    5.592534569999999760625541967    3.369782279999999907715846348    3.371224160000000136250264404    0.000165213978917555515124604    3.790846797916042731912966701    0.044305756439567342552798834    0.000000000000000000000000000    0.000000000000000000000000000    0.000000000000000000000000000
  67 2    5.325381609999999987792307365    4.155090170000000249217464443    0.542552629999999980192626481    0.523795483197089573046412170    1.466830414555997830206024446    2.066033346949523785696101186    0.000000000000000000000000000    0.000000000000000000000000000    0.000000000000000000000000000
  68 2    8.984033070000000620325408818    7.099243900000000273564637610    6.240616669999999643891896994    1.248834427735047158947168100   -0.590670321860838898331280689    1.791131570456740984553789531    0.000000000000000000000000000    0.000000000000000000000000000    0.000000000000000000000000000
  69 2    3.514173149999999967718622429    5.488705000000000389093202102    9.191194440000000298596205539    2.200067881473316333540424239    0.488073669550226130198211649    0.887176964054902761347420892    0.000000000000000000000000000    0.000000000000000000000000000    0.000000000000000000000000000
  70 2    5.300510720000000119966898637    3.745419580000000081554389908    6.023561759999999765113898320    3.215655721055801219421255155   -3.839502138034887046558196744    0.026755580410584109407601261    0.000000000000000000000000000    0.000000000000000000000000000    0.000000000000000000000000000
  71 2   10.942880849999999881561052462    5.458748560000000082936821855    9.191889789999999393899088318   -0.098719111757581856636534212   -0.890804340055727950087316458    0.537252736009313336396076011    0.000000000000000000000000000    0.000000000000000000000000000    0.000000000000000000000000000
  72 2    9.159881029999999313417902158    0.083711510000000002862385884    6.438247200000000169950453710   -0.394106239192721252706519408   -2.080563202632527364244197088   -1.152337463623611224505793871    0.000000000000000000000000000    0.000000000000000000000000000    0.000000000000000000000000000
  73 2    1.734713989999999927960061541    3.596683669999999999333795131    6.294625489999999601309355057   -0.197731290872223297583332169   -1.475050941937857684749246800   -1.177761364743166616619873821    0.000000000000000000000000000    0.000000000000000000000000000    0.000000000000000000000000000
  74 2    6.620186880000000329005160893    1.937912840000000080920017353    0.956906119999999971170723256    1.024827822354940742854978453   -0.200354233422951222287622386    0.950444863118904192944569331    0.000000000000000000000000000    0.000000000000000000000000000    0.000000000000000000000000000
  75 2    9.019277089999999219571691356    0.757089510000000021072708023    0.855259830000000054184283726   -1.251798668617124965507514389   -2.127007213728595580448654800   -1.450202179664596080499450181    0.000000000000000000000000000    0.000000000000000000000000000    0.000000000000000000000000000
  76 2    7.325876540000000325392193190    8.717104040000000608756636211    4.383967079999999683082023694   -0.557184626630653934142856087    2.980157449389961410446403534   -0.330596353319407176840627471    0.000000000000000000000000000    0.000000000000000000000000000    0.000000000000000000000000000
  77 2    7.500802010000000130673925014    1.907809260000000062262870415    3.908682530000000099335011328   -2.275287668242518712702349148   -2.826744291421271260134062686    1.551838114098417653607953071    0.000000000000000000000000000    0.000000000000000000000000000    0.000000000000000000000000000
  78 2    3.511436349999999873006117923    9.568796969999999291189851647    7.256765439999999678377662349    2.897914501533688014234257935    0.263259827340922569760550687   -0.367426011314182621170232323    0.000000000000000000000000000    0.000000000000000000000000000    0.000000000000000000000000000
  79 2    8.945128199999999196734279394    7.260508220000000179084054253    9.057303799999999682768248022    1.469708759926482422031313035   -0.418066465352659843990323907   -4.313539318171763170539634302    0.000000000000000000000000000    0.000000000000000000000000000    0.000000000000000000000000000
  80 2    7.348457840000000018676473701    1.721818340000000002731894710    9.313388079999999291658241418    0.623927613333795316741259285    0.549430484116347983558625856   -0.137108783413634000014624803    0.000000000000000000000000000    0.000000000000000000000000000    0.000000000000000000000000000
  81 2    7.714256330000000438928964286    9.094098689999999152178133954    9.645029779999999774986463308   -1.865922458508533665622053377    2.745021111961389426170399020   -1.056023816881436871994992543    0.000000000000000000000000000    0.000000000000000000000000000    0.000000000000000000000000000
  82 2    5.844856400000000284933321382    7.278290799999999727276644990    8.696497510000000374930095859    0.565112620847460167539111353   -0.716248062509361460570289637   -0.014002706974598044808999475    0.000000000000000000000000000    0.000000000000000000000000000    0.000000000000000000000000000
  83 2    9.057191319999999379319888249    7.209691880000000274719695881    3.642728359999999998564135240   -0.161504942581992771977184020   -1.073180824261869448221773382   -0.393410018848824760695492841    0.000000000000000000000000000    0.000000000000000000000000000    0.000000000000000000000000000
  84 2    5.149134840000000323811946146    7.411208770000000001232365321    6.171599180000000295365225611    2.838812515370666922365217033   -1.543715969189738856925941946    0.439904169938330480427168823    0.000000000000000000000000000    0.000000000000000000000000000    0.000000000000000000000000000
  85 2    7.300659220000000004802132025    8.942661129999999403139554488    1.438412790000000107681898953   -0.534909357474592117576150940    0.803578825354374526312994931    1.481696621838811456228768293    0.000000000000000000000000000    0.000000000000000000000000000    0.000000000000000000000000000
  86 2    9.089107679999999689357537136    7.300772509999999826391103852    0.667789030000000005671267900    3.938590709827451963320754658   -0.773022823956657889610255552    2.762320201062004265679661330    0.000000000000000000000000000    0.000000000000000000000000000    0.000000000000000000000000000
  87 2    7.636225399999999829958596820    5.247418050000000278032530332    9.466307190000000204577190743   -1.328612674991067832408475624    1.041519095032449104820670982   -0.641493563037537239956975554    0.000000000000000000000000000    0.000000000000000000000000000    0.000000000000000000000000000
  88 2    4.034540859999999895535438554    8.978513209999999133970050025    9.639727609999999557999217359   -1.247091122750116909401185694    0.949858319187125488269884954    1.644261995692052558126761141    0.000000000000000000000000000    0.000000000000000000000000000    0.000000000000000000000000000
  89 2    9.323872850000000767067831475   10.899982299999999568740349787    9.031152309999999516776370001    0.185165381975921139456886522    0.496912951373489841788710919   -1.479658604299314950125676660    0.000000000000000000000000000    0.000000000000000000000000000    0.000000000000000000000000000
  90 2    7.229691189999999600956925860    5.181592539999999580402345600    6.832519109999999784577084938   -0.850700832772182446994690963    0.293385679726769987851753285    1.630653653351697984774659744    0.000000000000000000000000000    0.000000000000000000000000000    0.000000000000000000000000000
  91 2    5.481094190000000310192262987    0.416356269999999972775128754    5.907082800000000410989287047   -2.319985962835992232555781811   -0.625801548187079115237452243    0.977756125918615937031574958    0.000000000000000000000000000    0.000000000000000000000000000    0.000000000000000000000000000
  92 2    0.415841010000000010915499615    5.613805319999999987601313478    6.492439690000000318548245559   -1.137343924705947806330641470   -2.530659326386528462649039284    3.065179933326991790210058753    0.000000000000000000000000000    0.000000000000000000000000000    0.000000000000000000000000000
  93 2   10.861363609999999724209374108    9.207080239999999804467734066    4.036716270000000328366240865   -0.116565109386411125402815969   -1.252715679634224255067920240    2.169134973272877076055920043    0.000000000000000000000000000    0.000000000000000000000000000    0.000000000000000000000000000
  94 2    1.581015110000000056800217862    7.323643050000000265242761088    3.451352689999999778791561766    1.142640821341047052683848051   -2.947043459391485598075632879    1.527124555794950877540827605    0.000000000000000000000000000    0.000000000000000000000000000    0.000000000000000000000000000
  95 2    3.957490710000000078139237303    9.063814439999999805763764016    4.211261989999999677536379750   -0.845545418654807590108646309    1.417669592063364625289523246    0.161489154713915450400918417    0.000000000000000000000000000    0.000000000000000000000000000    0.000000000000000000000000000
  96 2    3.236044909999999941163650874    5.997076110000000070954229159    1.548869250000000086231466412    0.873409268887406553538710341   -0.777630463978220776155581007    0.180604454158286520382148410    0.000000000000000000000000000    0.000000000000000000000000000    0.000000000000000000000000000
  97 2    5.254545040000000000190993887    7.174171109999999629280864610    0.843935270000000015144792087   -0.935241478405881565549861989    0.869297052521850965867145078   -0.409753833749598617153253599    0.000000000000000000000000000    0.000000000000000000000000000    0.000000000000000000000000000