LAMMPS (2 Aug 2023 - Development - patch_2Aug2023-219-g06e2d5d306)
# rerun

units          metal
boundary       p p p
atom_style     atomic
neigh_modify   delay 0 every 1 check no

read_data     tetrag_hfo2_sample_DATA
Reading data file ...
  orthogonal box = (0 0 0) to (10.956 10.956 10.629)
  1 by 1 by 1 MPI processor grid
  reading atoms ...
  108 atoms
  read_data CPU = 0.001 seconds

pair_style     pace
ACE version: 2022.6.27
Recursive evaluator is used
pair_coeff     * * Siviraman_GAP_HfO2_N3_rcut5_maxdeg10_regQR.yace Hf O
Loading Siviraman_GAP_HfO2_N3_rcut5_maxdeg10_regQR.yace
Total number of basis functions
	O: 20 (r=1) 1166 (r>1)
	Hf: 20 (r=1) 1166 (r>1)
Mapping LAMMPS atom type #1(Hf) -> ACE species type #1
Mapping LAMMPS atom type #2(O) -> ACE species type #0

variable dumpf    equal  1

thermo       1
thermo_style custom step temp pe ke etotal press

#dump           run_dump all xyz ${dumpf} dump_run.xyz
#dump_modify    run_dump sort id format line "%s %32.27f %32.27f %32.27f"

dump           run_forces all custom ${dumpf} dump_rerun_forces_highp_nocheck.custom id type x y z fx fy fz vx vy vz
dump           run_forces all custom 1 dump_rerun_forces_highp_nocheck.custom id type x y z fx fy fz vx vy vz
dump_modify    run_forces sort id format line "%4d %1d %32.27f %32.27f %32.27f %32.27f %32.27f %32.27f %32.27f %32.27f %32.27f"


rerun dump_run_forces_highp_nocheck.custom dump x y z
WARNING: No fixes with time integration, atoms won't move (src/verlet.cpp:60)
Neighbor list info ...
  update: every = 1 steps, delay = 0 steps, check = no
  max neighbors/atom: 2000, page size: 100000
  master list distance cutoff = 7
  ghost atom cutoff = 7
  binsize = 3.5, bins = 4 4 4
  1 neighbor lists, perpetual/occasional/extra = 1 0 0
  (1) pair pace, perpetual
      attributes: full, newton on
      pair build: full/bin/atomonly
      stencil: full/bin/3d
      bin: standard
Per MPI rank memory allocation (min/avg/max) = 2.477 | 2.477 | 2.477 Mbytes
   Step          Temp          PotEng         KinEng         TotEng         Press     
         0   0             -1063.1311      0             -1063.1311      6818.0491    
         1   0             -1063.064       0             -1063.064       7075.3708    
         2   0             -1063.0521      0             -1063.0521      7093.9035    
         3   0             -1063.0988      0             -1063.0988      6865.4433    
Loop time of 0.0165419 on 1 procs for 4 steps with 108 atoms

Total wall time: 0:00:02
