(written by ASE)

4861 atoms
3 atom types

0.0      48.302314085994816  xlo xhi
0.0      50.197237398508086  ylo yhi
0.0      45.139087810335219  zlo zhi

Masses

     1      178.48999995408445 # Hf
     2      15.998999995884349 # O
     3      178.48999995408445 # Hf

Atoms # atomic

     1   1      2.9641999999999999      1.7145999999999999      1.4154800000000001
     2   1      1.8080700000000001                0.903756      3.8122699999999998
     3   1      48.211500000000001      3.8911699999999998      3.6391100000000001
     4   1      1.5465800000000001      4.7762399999999996      1.3083400000000001
     5   1      3.3119399999999999      1.8515900000000001      6.3425099999999999
     6   1      1.6480999999999999      1.0543899999999999      8.9131900000000002
     7   1      48.136899999999997                 3.43662      8.7393900000000002
     8   1      1.4252199999999999      4.6835000000000004      6.2070400000000001
     9   1                 3.39113      1.7442200000000001                  11.369
    10   1                 1.63676     0.97819699999999998                 13.7568
    11   1      48.160299999999999      3.6748099999999999                 13.9305
    12   1                 1.38385      4.4843599999999997      11.591699999999999
    13   1      3.1747399999999999      1.8105500000000001      15.949299999999999
    14   1      1.4886900000000001      1.0407500000000001      18.719799999999999
    15   1     0.40836699999999998      3.8340299999999998      18.896100000000001
    16   1                 1.65656      4.5768700000000004      16.355799999999999
    17   1      2.9958399999999998                  1.9553      21.255299999999998
    18   1                 1.67882     0.53942800000000002                 23.5611
    19   1     0.14172699999999999                 3.39045                 23.8933
    20   1      1.9422999999999999      4.4545500000000002      21.501100000000001
    21   1      3.0066299999999999                 1.12049      26.353999999999999
    22   1                  1.4719     0.94172999999999996                 29.0122
    23   1                   48.25                 3.70702      28.968699999999998
    24   1      1.4966699999999999      4.3475400000000004      26.718599999999999
    25   1      3.4976400000000001      1.6604300000000001      31.817699999999999
    26   1      1.4241299999999999      1.1643600000000001      34.139800000000001
    27   1      48.253100000000003      3.6433200000000001                 33.8491
    28   1                 1.54332      4.2313700000000001      31.332899999999999
    29   1                 3.37235                 1.56193      36.630400000000002
    30   1      1.8322099999999999     0.90132800000000002      38.980200000000004
    31   1      48.229599999999998      3.5393599999999998      39.160899999999998
    32   1                 1.55477      4.5190900000000003      36.413800000000002
    33   1      3.1851799999999999                 1.98977      41.607100000000003
    34   1                 1.29562     0.82061399999999995      44.025799999999997
    35   1    0.044683500000000001                 3.59259      43.774799999999999
    36   1                 1.50231      4.6662499999999998      41.685600000000001
    37   1      3.3115199999999998      7.3821300000000001                 1.27773
    38   1      1.3445199999999999      6.3796499999999998      3.6572800000000001
    39   1    0.068010399999999999      9.1311599999999995      3.7551700000000001
    40   1      2.1370200000000001                 10.1204                 1.06549
    41   1      2.9659399999999998      7.3859500000000002      6.3322399999999996
    42   1      1.8153699999999999      6.0490199999999996      8.9245699999999992
    43   1                0.130524      9.1997300000000006      8.6932299999999998
    44   1      1.9675400000000001      10.110300000000001      6.3216999999999999
    45   1      3.0243199999999999      7.3900199999999998                 11.3828
    46   1      1.3965000000000001      6.4231699999999998                 14.0215
    47   1      48.158999999999999      8.8147500000000001      14.097099999999999
    48   1                 1.76006      10.319699999999999                 11.4998
    49   1      3.0379700000000001      7.3870199999999997      16.440100000000001
    50   1                   1.946      6.5182700000000002      19.318000000000001
    51   1    0.091970999999999997                  9.4131      19.135999999999999
    52   1      1.3617600000000001      10.204800000000001      16.327400000000001
    53   1      3.2752599999999998      7.4575199999999997      21.671900000000001
    54   1      1.5194300000000001                 6.45045                 24.1189
    55   1                 48.2913      8.9928600000000003      24.073599999999999
    56   1      1.7215199999999999                  10.262      21.629300000000001
    57   1      3.1594500000000001                 7.14628      26.412600000000001
    58   1                 1.56341      6.3128299999999999                 28.9437
    59   1      48.277000000000001      8.9972799999999999      29.062000000000001
    60   1      1.4414499999999999      9.8957499999999996                 26.5076
    61   1      2.9533700000000001      7.0560200000000002      31.589300000000001
    62   1                 1.35284                 6.52454      33.905299999999997
    63   1                 48.0473      9.1463900000000002      33.794699999999999
    64   1                 1.72214                 10.3512                 31.5458
    65   1      2.8401100000000001      7.5947199999999997      36.516800000000003
    66   1      1.5801400000000001      6.3742799999999997      38.956600000000002
    67   1    0.067985299999999999      8.9718999999999998      38.813600000000001
    68   1      1.3908199999999999      10.238300000000001      36.122100000000003
    69   1      3.2569400000000002                 7.25542      41.395299999999999
    70   1      1.7138199999999999      6.2849300000000001      44.092700000000001
    71   1     0.15770899999999999      9.3249899999999997      43.832799999999999
    72   1      1.7758100000000001                 10.3476      41.010300000000001
    73   1                 3.28132      12.920400000000001      1.0787599999999999
    74   1      1.7074800000000001                 11.8636                 3.77121
    75   1                0.218613                 14.5175      3.9899499999999999
    76   1      1.6882699999999999                 15.6005                 1.32891
    77   1      3.2221600000000001                 12.8994      6.2882800000000003
    78   1      1.6571800000000001                 12.0022      8.8945100000000004
    79   1    0.040760400000000002                 14.8665      8.7876200000000004
    80   1                 1.71529      15.831200000000001      6.2892000000000001
    81   1      3.0078399999999998                 13.1012      11.273899999999999
    82   1      1.5642799999999999      11.902200000000001                 13.7288
    83   1                 48.2515      15.178900000000001                 13.8277
    84   1                 1.31409      15.853199999999999      11.351000000000001
    85   1      2.6324100000000001                 12.9536      16.321100000000001
    86   1      1.6226499999999999      12.084899999999999      18.990500000000001
    87   1                 48.1967                  14.795                 18.8093
    88   1                 1.95509      15.784800000000001                 16.4116
    89   1      3.2746200000000001                 12.6875      21.419699999999999
    90   1      1.8066800000000001      11.884600000000001      24.117699999999999
    91   1    0.033508499999999997                 14.7662      23.935300000000002
    92   1                 1.58561                 15.7729      21.537400000000002
    93   1      3.3387600000000002                 13.1473      26.526199999999999
    94   1                 1.64133                 11.9223      29.066600000000001
    95   1      48.275799999999997                 14.6999      29.148199999999999
    96   1      1.3664499999999999                 15.8078      26.523800000000001
    97   1      3.2848899999999999                 13.1259                 31.1981
    98   1                 1.51403      12.074199999999999      33.779499999999999
    99   1      48.168799999999997                 14.8436      33.960099999999997
   100   1      1.6796800000000001      15.848100000000001                  31.445
   101   1      3.1552899999999999                 13.1592      36.332999999999998
   102   1                 1.47177                 12.5764      39.131300000000003
   103   1      48.131700000000002                 15.0931      38.785200000000003
   104   1      1.5444199999999999                 15.9353      36.146000000000001
   105   1      3.1377899999999999                 13.0578      41.394199999999998
   106   1      1.5942799999999999                 12.2159      43.948300000000003
   107   1                0.177677                  14.693      43.908999999999999
   108   1      1.4969600000000001                 15.8552                 41.3825
   109   1                  3.3491      18.390999999999998     0.90866999999999998
   110   1      1.9071199999999999      17.565300000000001      3.6204999999999998
   111   1      48.088900000000002                 20.2898      3.6768800000000001
   112   1      1.6383000000000001      21.121600000000001      1.2505500000000001
   113   1                 3.09091      18.635999999999999      6.2447699999999999
   114   1      1.4492100000000001                 17.6876      8.8387799999999999
   115   1    0.090038400000000005      20.345400000000001                 8.72194
   116   1                 1.50627      21.159300000000002                 6.06053
   117   1      3.0702699999999998      19.139800000000001      11.266500000000001
   118   1                 1.11605      17.776299999999999                 13.5884
   119   1    0.061821800000000003      20.494800000000001      13.948700000000001
   120   1      1.4697800000000001      21.539100000000001                 11.0372
   121   1      2.9157700000000002                 18.8291      16.108699999999999
   122   1                 1.50589                 17.8125      18.880800000000001
   123   1      48.299700000000001      20.569900000000001      19.088200000000001
   124   1                 1.37008      21.896000000000001      16.398199999999999
   125   1      3.1684100000000002                 18.8949      21.226800000000001
   126   1      1.6903300000000001                 17.6435      24.023499999999999
   127   1                0.225634                 20.5092      23.780799999999999
   128   1      1.7012499999999999      21.686699999999998      21.095500000000001
   129   1      2.9293399999999998                  18.407      26.615200000000002
   130   1      1.7044699999999999      17.771799999999999                 29.1677
   131   1      48.280000000000001      20.230699999999999                 28.7226
   132   1      1.5497099999999999                 21.3673                 26.1709
   133   1                 3.17055      18.809899999999999                 31.4605
   134   1      1.4944299999999999      17.650600000000001      33.840800000000002
   135   1     0.10856200000000001                 20.5383      33.866599999999998
   136   1                 1.65513      21.566500000000001      31.095500000000001
   137   1      2.9146299999999998                 18.6309      36.398299999999999
   138   1      1.5101199999999999                 17.9285      38.848999999999997
   139   1                 48.0867      20.380500000000001                  38.445
   140   1      1.8344800000000001      21.302199999999999      36.421700000000001
   141   1      2.9007399999999999      18.480899999999998      41.199800000000003
   142   1                 1.51023      17.432700000000001                 43.7652
   143   1     0.20626700000000001                 20.1126      43.929200000000002
   144   1      1.3531500000000001                 21.1692      41.129800000000003
   145   1      3.2302499999999998                 23.8398      1.0895600000000001
   146   1      1.5678099999999999      23.071999999999999                 3.92666
   147   1      47.991599999999998                 26.4055      3.6461899999999998
   148   1                 1.50386      26.907299999999999      1.1520900000000001
   149   1      2.9325299999999999                 24.0977      6.4245200000000002
   150   1      1.4503200000000001                 23.2455      8.7143499999999996
   151   1     0.24154900000000001      25.870899999999999      8.5771499999999996
   152   1      1.4103399999999999                 26.8566      6.1778500000000003
   153   1                 3.19563      24.301600000000001      11.354200000000001
   154   1                 1.68028      23.628399999999999                 14.0138
   155   1      48.135599999999997      26.019500000000001      13.741899999999999
   156   1      1.6135600000000001      26.693999999999999                 11.4491
   157   1      3.4580899999999999      24.497900000000001                 16.7699
   158   1                 1.39669                 23.5289      18.756499999999999
   159   1      47.923099999999998                 26.2638      19.050999999999998
   160   1                 1.19265      26.996600000000001      16.546900000000001
   161   1                 2.82613      24.521100000000001      21.439599999999999
   162   1                 1.30904      23.239100000000001      23.789300000000001
   163   1      48.196899999999999                 26.0685                 23.9267
   164   1                 1.33534      27.101299999999998      21.521100000000001
   165   1      3.2294399999999999      23.913699999999999                 26.2117
   166   1      1.2665200000000001      23.399899999999999      28.838799999999999
   167   1     0.25876900000000003      26.140699999999999      28.554200000000002
   168   1                  2.0162                 26.9877      26.440799999999999
   169   1      3.1546099999999999      24.084099999999999      31.511099999999999
   170   1                 1.34409                 23.1675      33.679400000000001
   171   1      48.102200000000003      26.114000000000001                 33.8369
   172   1      1.4499200000000001      26.889900000000001      31.288499999999999
   173   1      3.4729199999999998      24.049700000000001      36.360199999999999
   174   1      1.6358299999999999      23.000900000000001                 38.4377
   175   1     0.22103100000000001      25.625900000000001      38.588000000000001
   176   1                 1.55968      26.420999999999999      36.137799999999999
   177   1      2.7237200000000001      24.320699999999999      41.317799999999998
   178   1      1.4717899999999999                 23.1127      43.850200000000001
   179   1      48.142899999999997                  25.544      43.615000000000002
   180   1      1.3746400000000001      26.978200000000001      41.113900000000001
   181   1      3.1234700000000002      29.363099999999999      1.3911500000000001
   182   1      1.5437099999999999      28.732099999999999      3.9247899999999998
   183   1      48.103200000000001      31.523900000000001      3.8365100000000001
   184   1      1.4887900000000001      32.621699999999997     0.99509199999999998
   185   1      3.2164700000000002      29.552900000000001      6.5022599999999997
   186   1                 1.63632                 28.7333                 8.80532
   187   1                0.101882      31.649899999999999      9.0479400000000005
   188   1      1.4769399999999999      32.709899999999998      6.5481499999999997
   189   1                  3.1488                 29.5746      11.437900000000001
   190   1      1.1747799999999999      28.734200000000001                 13.9846
   191   1      48.082799999999999                 31.4603      13.766999999999999
   192   1      1.8645099999999999      32.377699999999997      11.229200000000001
   193   1      2.9619900000000001      29.847899999999999                 16.0825
   194   1      1.7563200000000001                 28.9907      18.815899999999999
   195   1    0.047946000000000003      31.716899999999999                 18.7986
   196   1                 1.58141      32.403100000000002      16.179200000000002
   197   1      3.1417999999999999                 29.8781                 21.3187
   198   1                 1.99956      28.986499999999999      24.209599999999998
   199   1      48.258699999999997                 31.5746      23.684699999999999
   200   1                 1.36493      32.755699999999997      21.434799999999999
   201   1      3.2818399999999999      29.645800000000001                 26.6023
   202   1                 1.48058      28.782499999999999      28.731400000000001
   203   1      48.118200000000002      31.919899999999998      28.491599999999998
   204   1      1.4884900000000001      32.334299999999999      26.081800000000001
   205   1      3.0139200000000002      29.883099999999999      31.407599999999999
   206   1                 1.39185      28.710000000000001                 33.9223
   207   1    0.018386300000000001      31.607900000000001      33.711300000000001
   208   1                 1.60033      32.773499999999999                 31.3887
   209   1      2.9634200000000002      29.606100000000001      36.159599999999998
   210   1      1.7078599999999999      28.841000000000001      38.780200000000001
   211   1    0.096089300000000002      31.553899999999999      38.890000000000001
   212   1      1.4332199999999999      32.520200000000003      36.394500000000001
   213   1      2.9901800000000001      29.476900000000001      41.434199999999997
   214   1                 1.70102      28.634699999999999      43.935899999999997
   215   1                0.117121      31.450099999999999      43.581299999999999
   216   1      1.8291299999999999      32.808900000000001      41.685400000000001
   217   1                 2.98963      35.177799999999998      1.5972500000000001
   218   1                 1.36792      34.145499999999998      4.1405900000000004
   219   1      48.177500000000002      37.260800000000003      3.7961800000000001
   220   1                 1.31385      38.294499999999999                 1.38104
   221   1      3.1299000000000001      35.372700000000002      6.3256100000000002
   222   1                 1.43567                 34.3553      8.9576799999999999
   223   1     0.28293200000000002      37.348100000000002      8.5773899999999994
   224   1      1.3764099999999999      38.268900000000002      6.2324299999999999
   225   1                 3.05124                  35.509      11.120100000000001
   226   1      1.4525699999999999      34.213099999999997                 13.9918
   227   1                 48.1374      37.345199999999998                 13.8225
   228   1                 1.59263      38.371400000000001                 11.1332
   229   1      3.0813799999999998      35.283799999999999                 16.4771
   230   1      1.3552500000000001      34.378599999999999      18.896100000000001
   231   1      47.936700000000002      37.505099999999999                 18.5564
   232   1      1.7804899999999999      38.332999999999998                 16.6571
   233   1      3.0751900000000001      35.045900000000003                 21.5747
   234   1      1.4264300000000001      34.590200000000003      24.099599999999999
   235   1      48.197000000000003      37.320300000000003      23.910499999999999
   236   1      1.3526899999999999      38.402099999999997      21.097100000000001
   237   1      2.9782299999999999      34.941899999999997                 26.5533
   238   1                 1.37683      34.260899999999999      28.890599999999999
   239   1      48.191000000000003      37.458199999999998      28.799600000000002
   240   1      1.5546800000000001      38.176699999999997      26.374400000000001
   241   1      3.2878699999999998      35.345199999999998      31.600200000000001
   242   1                 1.65181      34.167299999999997      34.167499999999997
   243   1     0.26614100000000002      36.869700000000002      33.991700000000002
   244   1      1.6900299999999999      38.422400000000003      31.497399999999999
   245   1                 3.30172      35.233400000000003      36.775300000000001
   246   1                 1.57175      34.367100000000001      39.057200000000002
   247   1      48.145699999999998      37.155099999999997      38.827199999999998
   248   1      1.4982800000000001      37.944600000000001      36.546999999999997
   249   1      3.1378599999999999      35.359999999999999      41.453499999999998
   250   1      1.5248200000000001      34.556600000000003      44.082000000000001
   251   1                0.074018                 37.1691                 44.1143
   252   1                  1.6008                 38.3232      41.434800000000003
   253   1      3.1684800000000002      40.707500000000003      1.2216800000000001
   254   1                 1.69238      40.135599999999997                 3.72173
   255   1    0.099419499999999994                 42.8367      3.9259599999999999
   256   1                 1.69276                    43.5      1.2434499999999999
   257   1      3.4100299999999999      41.037100000000002      6.3634000000000004
   258   1                 1.47834      40.188800000000001      8.6403700000000008
   259   1    0.093951599999999996      42.918799999999997      8.7394099999999995
   260   1      2.0313599999999998      43.589100000000002      6.2499900000000004
   261   1      3.3115999999999999      40.568899999999999      11.706899999999999
   262   1                 1.52976      39.888100000000001      13.908300000000001
   263   1      48.072600000000001      42.697400000000002      13.346399999999999
   264   1                 1.52704      43.682000000000002                 11.3163
   265   1      3.4009399999999999      41.040500000000002      16.606300000000001
   266   1                 1.67025      40.103000000000002      18.900099999999998
   267   1      48.136600000000001      42.851300000000002      18.663799999999998
   268   1                 1.51738                 43.8322      16.028400000000001
   269   1      3.1914899999999999                 41.2746      20.978999999999999
   270   1                 1.65262      40.371299999999998      23.969200000000001
   271   1               0.0266488      42.647599999999997      23.767299999999999
   272   1      1.3427800000000001      43.742400000000004                 21.3034
   273   1      3.6540900000000001      40.790399999999998      26.078299999999999
   274   1      2.0130400000000002      39.883000000000003      28.668399999999998
   275   1     0.37962899999999999                 42.6387                  29.137
   276   1      2.0665200000000001      43.575499999999998      26.126300000000001
   277   1      3.6975799999999999                 41.0214      31.597799999999999
   278   1                 1.74899      39.753300000000003                 34.0047
   279   1                 48.2102      42.576799999999999      33.874600000000001
   280   1      2.0312999999999999                 43.6785      31.649100000000001
   281   1      3.1040399999999999      40.827100000000002      36.372999999999998
   282   1      1.8242100000000001                 39.7729      38.944000000000003
   283   1    0.065834500000000004                 42.5184      38.891599999999997
   284   1                 1.64574      43.540799999999997      36.087800000000001
   285   1      3.3009300000000001      40.781599999999997      41.636400000000002
   286   1                 1.80027      39.726799999999997      44.011600000000001
   287   1     0.37936799999999998      42.708399999999997      43.918500000000002
   288   1      1.7358199999999999      43.756100000000004      41.257199999999997
   289   1      2.9703599999999999      46.868600000000001                 1.42855
   290   1      1.3456999999999999      45.431199999999997      3.7364700000000002
   291   1     0.54228500000000002      48.103400000000001      3.8728799999999999
   292   1      1.4391099999999999      49.337899999999998      1.4647399999999999
   293   1                 3.21732      46.531599999999997      6.1217199999999998
   294   1      1.4642500000000001      45.610399999999998      8.4863400000000002
   295   1    0.038704700000000002      48.382300000000001      8.8267399999999991
   296   1      1.5985400000000001      49.212000000000003      6.5991400000000002
   297   1      3.2774200000000002      46.264899999999997      11.344799999999999
   298   1      1.7040999999999999      45.636000000000003                 13.6785
   299   1      48.152299999999997      48.503599999999999      13.776300000000001
   300   1      1.4775199999999999      49.399299999999997      11.191599999999999
   301   1                 3.24566      46.299900000000001      16.299199999999999
   302   1      1.0664199999999999      45.606999999999999      18.981300000000001
   303   1      48.133699999999997      48.395499999999998      18.968699999999998
   304   1      1.6263300000000001      49.135100000000001      16.324400000000001
   305   1      3.2539500000000001      46.273899999999998                 21.2514
   306   1                 1.65961                 45.5852      23.880800000000001
   307   1      48.268500000000003      48.312899999999999                 23.9816
   308   1      1.5692699999999999      49.100900000000003      21.183599999999998
   309   1                  3.3066      46.010899999999999      26.422599999999999
   310   1      1.5603800000000001      45.424300000000002      29.078399999999998
   311   1               0.0173303                 48.1721      28.982199999999999
   312   1      1.4750300000000001                 48.9559      26.551300000000001
   313   1                 3.18154      46.538899999999998      31.567799999999998
   314   1                 1.98115      45.829599999999999      33.977600000000002
   315   1                0.193852      48.461599999999997      33.656500000000001
   316   1                 1.58646      49.200800000000001                 31.2441
   317   1      3.1376300000000001      46.529299999999999      36.544499999999999
   318   1                 1.35324      45.649000000000001      38.778799999999997
   319   1      48.041200000000003      48.500700000000002      38.811199999999999
   320   1      1.4587000000000001      49.443800000000003                 36.4908
   321   1      3.3741400000000001      46.194200000000002      41.472299999999997
   322   1                 1.51755      45.631900000000002      43.846899999999998
   323   1      48.209299999999999      48.439700000000002      44.035200000000003
   324   1      1.4181900000000001      48.899299999999997                 41.5197
   325   1      6.3721199999999998      2.0504899999999999                 1.50179
   326   1      4.8821199999999996                 1.11643      3.8188300000000002
   327   1      3.0442399999999998      3.7084800000000002      3.7627700000000002
   328   1      4.8690699999999998      4.7768699999999997      1.1846699999999999
   329   1      6.7836100000000004                 2.08413      6.4745699999999999
   330   1      4.8293499999999998     0.77032199999999995      9.1251700000000007
   331   1      3.2236199999999999                 3.64527      8.9843299999999999
   332   1      4.7746700000000004                 4.67035      6.3878599999999999
   333   1      6.5310800000000002      1.6005499999999999      11.025499999999999
   334   1                 5.17849      1.0952999999999999      13.616899999999999
   335   1      3.1284000000000001      3.8829899999999999      13.916600000000001
   336   1      4.7664900000000001      4.8126600000000002      11.476900000000001
   337   1      6.5807799999999999                 2.00461      16.164300000000001
   338   1      4.6089399999999996     0.89841300000000002      18.589300000000001
   339   1                 3.22268      3.5573999999999999      18.667899999999999
   340   1      4.7619699999999998      4.6598100000000002      16.052399999999999
   341   1      6.5007999999999999      1.6834499999999999                 21.6128
   342   1      4.8971099999999996     0.77138799999999996      23.805299999999999
   343   1      3.1388600000000002      3.2548900000000001                 23.8291
   344   1                  4.8022                 4.48001      21.350100000000001
   345   1      6.3376000000000001                 1.43736                 26.4223
   346   1      4.6785800000000002     0.79213900000000004                 29.0655
   347   1      3.0874199999999998                 3.94326      29.032299999999999
   348   1      4.5542199999999999      4.1941300000000004      26.334399999999999
   349   1      6.3349700000000002                 1.81826                 31.3904
   350   1      5.0854799999999996     0.67537599999999998      34.064999999999998
   351   1                 3.10249      3.7741899999999999      33.992899999999999
   352   1      4.8343999999999996      4.5054499999999997      31.622900000000001
   353   1      6.2622799999999996      1.6605000000000001      36.461100000000002
   354   1      4.8176800000000002     0.81856200000000001      39.309600000000003
   355   1      3.1136699999999999                 3.73678      38.995899999999999
   356   1      4.7364800000000002      4.5524500000000003      36.194000000000003
   357   1      6.3539399999999997      1.6648700000000001      41.616700000000002