LAMMPS (29 Aug 2024)
Running on 11 partitions of processors
    Step     MaxReplicaForce  MaxAtomForce      GradV0         GradV1         GradVc          EBF            EBR            RDT            RD1            PE1            RD2            PE2            RD3            PE3            RD4            PE4            RD5            PE5            RD6            PE6            RD7            PE7            RD8            PE8            RD9            PE9            RD10           PE10           RD11           PE11      
         0   118.88781        24.123373      7.5586845      6.3453187      7.8719406      10.783705      20.385772      11.165081      0              -34616.383     0.11281968     -34611.538     0.24677374     -34605.599     0.41446479     -34621.068     0.49963977     -34609.251     0.57681545     -34627.992     0.67028489     -34635.01      0.74446453     -34632.743     0.83116769     -34627.181     0.91398068     -34635.105     1              -34625.985     
        10   14.419189        1.0149633      0.83367645     0.86858522     1.7831055      2.4157521      5.0144462      5.9877707      0              -35551.444     0.092116111    -35551.834     0.3155449      -35550.43      0.51177561     -35550.785     0.62698477     -35549.029     0.70864895     -35550.206     0.78826104     -35552.252     0.85029316     -35552.886     0.91070488     -35553.235     0.9553264      -35553.437     1              -35554.043     
        20   4.5407886        5.5981483      0.16743219     0.21798733     1.9162537      1.1579897      2.0745383      3.9195908      0              -35599.533     0.090555374    -35599.633     0.25437544     -35599.719     0.29162253     -35599.857     0.4295816      -35599.633     0.54585551     -35598.63      0.67762946     -35598.375     0.80710554     -35599.278     0.88474405     -35599.933     0.94483751     -35600.289     1              -35600.449     
        30   3.6284189        5.4743402      0.09793759     0.11162346     0.20319286     1.297889       1.8368778      3.5796197      0              -35603.604     0.098774259    -35603.636     0.24176565     -35603.774     0.25228167     -35603.902     0.37672497     -35603.699     0.49115832     -35602.806     0.61441712     -35602.307     0.76856432     -35603.017     0.86339205     -35603.67      0.92231944     -35603.971     1              -35604.143     
        40   1.7483328        0.64617692     0.064001885    0.069099268    0.1757072      1.4008375      1.7076135      3.3620126      0              -35605.218     0.10194449     -35605.228     0.22535914     -35605.355     0.24770553     -35605.455     0.36320584     -35605.063     0.47577851     -35604.224     0.59185185     -35603.817     0.73037824     -35604.437     0.83111162     -35605.029     0.90826978     -35605.356     1              -35605.525     
        50   1.1719195        0.012224661    0.043837777    0.047298494    0.14232708     1.4905621      1.6223783      3.3067481      0              -35606.123     0.10066924     -35606.121     0.21098974     -35606.232     0.26344665     -35606.253     0.37257019     -35605.704     0.48041409     -35604.922     0.58941676     -35604.632     0.71276965     -35605.187     0.81554019     -35605.758     0.90298113     -35606.095     1              -35606.255     
        60   0.94410289       0.0050484143   0.030246293    0.033876494    0.29096561     1.5701846      1.5478643      3.3063724      0              -35606.762     0.098981753    -35606.749     0.20366171     -35606.848     0.28115365     -35606.766     0.38556982     -35606.131     0.489317       -35605.399     0.59328463     -35605.192     0.71196839     -35605.737     0.81254419     -35606.27      0.90133794     -35606.59      1              -35606.739     
        70   0.91545686       0.2460492      0.020687124    0.024673848    0.38515993     1.652037       1.4784306      3.3249038      0              -35607.281     0.097984143    -35607.257     0.20158636     -35607.347     0.29438384     -35607.192     0.39583458     -35606.516     0.49690653     -35605.806     0.59788154     -35605.629     0.7038542      -35606.103     0.80431568     -35606.63      0.9006319      -35606.966     1              -35607.107     
        80   0.66523603       0.00057054208  0.017239978    0.021206366    0.4055842      1.6934034      1.4468485      3.3328617      0              -35607.501     0.097929423    -35607.472     0.20151551     -35607.557     0.29800196     -35607.383     0.39874966     -35606.696     0.49920365     -35605.985     0.59957436     -35605.807     0.70442496     -35606.276     0.80414777     -35606.79      0.90040235     -35607.118     1              -35607.254     
        90   1.3182182        0.91829876     0.013289897    0.016972058    0.40886699     1.7543039      1.4045709      3.349988       0              -35607.786     0.097832711    -35607.75      0.20092817     -35607.83      0.29984722     -35607.642     0.39986118     -35606.944     0.49967456     -35606.222     0.59946217     -35606.031     0.70271189     -35606.462     0.8030578      -35606.979     0.90031053     -35607.306     1              -35607.436     
       100   0.63084922       0.13983028     0.011545226    0.014967635    0.40015668     1.7869366      1.3832005      3.3493214      0              -35607.924     0.098027424    -35607.885     0.20086601     -35607.961     0.30052944     -35607.771     0.40058782     -35607.068     0.50048377     -35606.338     0.60036147     -35606.137     0.70206268     -35606.567     0.80178821     -35607.07      0.89997304     -35607.393     1              -35607.52      
       110   0.4421419        0.00016243507  0.010277813    0.013472116    0.39419922     1.8124003      1.3667382      3.3498807      0              -35608.027     0.098041092    -35607.985     0.2003624      -35608.059     0.30033653     -35607.866     0.40041107     -35607.16      0.50035057     -35606.423     0.60028057     -35606.214     0.70144066     -35606.638     0.80115018     -35607.136     0.89981603     -35607.457     1              -35607.581     
       120   0.39557258       0.00042659781  0.0090535215   0.012011913    0.39328477     1.8375972      1.3501285      3.3478751      0              -35608.126     0.097951896    -35608.082     0.19945795     -35608.153     0.29965815     -35607.957     0.39979039     -35607.246     0.499812       -35606.503     0.59983499     -35606.288     0.70099675     -35606.707     0.80082399     -35607.2       0.89966027     -35607.517     1              -35607.638     
       130   0.359331         0.0001305926   0.0081024294   0.010873612    0.39994207     1.856981       1.3366948      3.3421334      0              -35608.201     0.097830134    -35608.155     0.19850742     -35608.225     0.29887526     -35608.022     0.39909445     -35607.307     0.49922027     -35606.561     0.59934701     -35606.344     0.70034376     -35606.758     0.80031895     -35607.248     0.89951822     -35607.562     1              -35607.681     
       140   0.71986684       0.27293333     0.007136521    0.0097178226   0.41886282     1.8758108      1.3224701      3.3336443      0              -35608.276     0.097728303    -35608.228     0.19753249     -35608.296     0.29798319     -35608.082     0.3982427      -35607.36      0.49842433     -35606.614     0.59860105     -35606.4       0.69938282     -35606.805     0.79976174     -35607.294     0.89943865     -35607.607     1              -35607.722     
       150   0.29534135       0.00047697888  0.0064973219   0.0089506405   0.43784686     1.8874934      1.3126481      3.3238283      0              -35608.323     0.097872294    -35608.274     0.19735167     -35608.341     0.29787777     -35608.116     0.39820966     -35607.389     0.49847212     -35606.645     0.59872545     -35606.436     0.69928999     -35606.845     0.79947846     -35607.326     0.89935108     -35607.635     1              -35607.749     
       160   0.27244984       9.3271988e-05  0.005951787    0.0082915594   0.45862086     1.8969241      1.3040902      3.3167474      0              -35608.363     0.098082938    -35608.312     0.19743028     -35608.378     0.29793006     -35608.143     0.39824851     -35607.411     0.49850412     -35606.669     0.59875491     -35606.466     0.69942485     -35606.876     0.79959475     -35607.353     0.89936857     -35607.658     1              -35607.77      
       170   0.66642595       0.2466511      0.0052188388   0.0073927629   0.48909977     1.9089396      1.2926271      3.3086999      0              -35608.414     0.098432426    -35608.361     0.19771513     -35608.426     0.29809159     -35608.176     0.39831881     -35607.437     0.49849321     -35606.7       0.59866268     -35606.505     0.69914001     -35606.91      0.79952385     -35607.386     0.89947107     -35607.689     1              -35607.797     
       180   0.33876204       0.05004739     0.0048124066   0.0068832376   0.5066743      1.9151132      1.2861897      3.3004905      0              -35608.441     0.098570311    -35608.388     0.19767512     -35608.452     0.29806697     -35608.192     0.39834034     -35607.45      0.49856691     -35606.716     0.59879119     -35606.526     0.69924733     -35606.935     0.79947362     -35607.406     0.89943514     -35607.705     1              -35607.812     
       190   0.21381862       0.00038686067  0.0044694882   0.0064448203   0.52707976     1.9196456      1.2803624      3.2880074      0              -35608.463     0.098318338    -35608.41      0.19664143     -35608.472     0.29712291     -35608.203     0.39753656     -35607.457     0.49790898     -35606.726     0.59827852     -35606.543     0.69878783     -35606.954     0.7991226      -35607.422     0.89929855     -35607.719     1              -35607.824     
       200   0.22061757       0.0012695173   0.0041470544   0.0060238975   0.56676004     1.9217613      1.2730112      3.252325       0              -35608.483     0.096677096    -35608.43      0.19179401     -35608.49      0.29274416     -35608.202     0.39377003     -35607.45      0.49475974     -35606.73      0.59574656     -35606.562     0.69691207     -35606.976     0.79787783     -35607.439     0.89867398     -35607.731     1              -35607.835     
       210   0.37785294       0.017355367    0.0038085896   0.0055713391   0.73667424     1.9080618      1.2497042      3.030287       0              -35608.504     0.08232576     -35608.463     0.15246221     -35608.494     0.25753679     -35608.123     0.36351507     -35607.356     0.4694612      -35606.691     0.57540831     -35606.596     0.68158989     -35607.025     0.78763993     -35607.469     0.89355796     -35607.748     1              -35607.846     
       220   0.4547211        0.10052117     0.0035143307   0.0051678422   0.50081404     1.9471573      1.2807667      2.7021347      0              -35608.521     0.055792163    -35608.49      0.12955382     -35608.303     0.23745537     -35607.693     0.3462993      -35606.978     0.45511617     -35606.574     0.56405547     -35606.723     0.6741038      -35607.168     0.78252094     -35607.544     0.89049065     -35607.773     1              -35607.855     
       230   0.23405425       0.0086795293   0.0032924776   0.0048569261   0.061112081    1.9657183      1.2934966      2.6828684      0              -35608.534     0.079721429    -35608.452     0.17006401     -35608.085     0.2736429      -35607.419     0.37752805     -35606.803     0.48132959     -35606.568     0.58535247     -35606.82      0.69057246     -35607.25      0.79346187     -35607.586     0.89590605     -35607.789     1              -35607.862     
       240   0.16041415       0.0010325958   0.003079629    0.004553085    0.28494797     1.9618226      1.2842134      2.6835426      0              -35608.545     0.092515539    -35608.431     0.18915351     -35607.983     0.29051048     -35607.314     0.39194531     -35606.75      0.49329791     -35606.584     0.59483901     -35606.865     0.69711644     -35607.281     0.79805207     -35607.604     0.89856957     -35607.799     1              -35607.868     
       250   0.14043366       0.00020192257  0.0028695658   0.0042479391   0.37188587     1.9598657      1.2771615      2.6845051      0              -35608.556     0.097497058    -35608.428     0.19642909     -35607.949     0.29687445     -35607.281     0.39733791     -35606.738     0.49775792     -35606.596     0.59833522     -35606.888     0.69910974     -35607.296     0.79949132     -35607.614     0.89952526     -35607.807     1              -35607.874     
       260   0.21798924       0.022080561    0.0026796983   0.0039678027   0.40285493     1.9601827      1.2730834      2.6851945      0              -35608.566     0.099108831    -35608.432     0.19875579     -35607.943     0.29888245     -35607.276     0.39901717     -35606.739     0.49913684     -35606.606     0.59933519     -35606.899     0.69968095     -35607.304     0.79981157     -35607.621     0.89978396     -35607.813     1              -35607.879     
       270   0.12138993       8.6676246e-06  0.0025459381   0.0037681678   0.41343684     1.9609639      1.2708989      2.6852981      0              -35608.572     0.099561664    -35608.437     0.19940867     -35607.944     0.29945285     -35607.277     0.39950401     -35606.742     0.49955196     -35606.611     0.59964682     -35606.906     0.69983367     -35607.31      0.79985599     -35607.626     0.89982632     -35607.817     1              -35607.882     
       280   0.11316242       7.3965069e-06  0.0023868829   0.0035285808   0.42116329     1.9620991      1.2686589      2.6856385      0              -35608.58      0.099789408    -35608.444     0.19973019     -35607.949     0.29972863     -35607.281     0.39973342     -35606.747     0.49974229     -35606.618     0.59978712     -35606.913     0.6999424      -35607.316     0.79988299     -35607.631     0.89984168     -35607.821     1              -35607.886     
       290   0.11971746       0.0042642896   0.0022037141   0.0032501741   0.42713895     1.9634658      1.2663568      2.6860548      0              -35608.588     0.099884072    -35608.452     0.19985655     -35607.955     0.29983713     -35607.286     0.39982269     -35606.752     0.49981463     -35606.624     0.59981824     -35606.919     0.69986879     -35607.322     0.79986196     -35607.636     0.89984671     -35607.826     1              -35607.891     
       300   0.09897195       5.6403984e-06  0.0021023259   0.0030951882   0.42995725     1.9641943      1.2651612      2.6862535      0              -35608.592     0.099910963    -35608.456     0.199891       -35607.958     0.29987095     -35607.289     0.39985493     -35606.755     0.49984564     -35606.628     0.5998518      -35606.923     0.69992432     -35607.326     0.79987345     -35607.639     0.89984787     -35607.829     1              -35607.893     
       310   0.30136003       0.051039345    0.001910927    0.0028014185   0.43470832     1.9654946      1.2630483      2.6871381      0              -35608.599     0.099926108    -35608.463     0.19989478     -35607.964     0.299859       -35607.295     0.3998256      -35606.761     0.49979854     -35606.634     0.59979327     -35606.93      0.6999206      -35607.331     0.79990902     -35607.645     0.89987341     -35607.834     1              -35607.897     
       320   0.086302201      4.2667902e-06  0.0018426075   0.0026963977   0.43626086     1.9659259      1.2623337      2.6869024      0              -35608.602     0.099950215    -35608.466     0.19993541     -35607.967     0.29991599     -35607.297     0.39989843     -35606.763     0.49988694     -35606.636     0.59989208     -35606.932     0.69997352     -35607.334     0.7998938      -35607.647     0.89986172     -35607.835     1              -35607.898     
       330   0.14288319       0.0096421412   0.0016943425   0.0024684415   0.43942292     1.966814       1.2608706      2.6874043      0              -35608.607     0.099961615    -35608.471     0.1999442      -35607.971     0.29992241     -35607.301     0.39990159     -35606.767     0.49988621     -35606.64      0.59988543     -35606.937     0.69996036     -35607.338     0.7999056      -35607.651     0.89987691     -35607.839     1              -35607.901     
       340   0.075471053      3.2515793e-06  0.0016179561   0.0023511947   0.44095806     1.9672394      1.2601592      2.6875382      0              -35608.61      0.099971479    -35608.473     0.19995791     -35607.973     0.29994017     -35607.303     0.39992306     -35606.769     0.4999109      -35606.642     0.59990619     -35606.939     0.69994314     -35607.34      0.79989814     -35607.652     0.89987918     -35607.84      1              -35607.903     
       350   0.071024111      2.873872e-06   0.0015251047   0.0022089541   0.44277495     1.9677251      1.2593329      2.6878322      0              -35608.613     0.099978149    -35608.476     0.19996499     -35607.976     0.29994795     -35607.305     0.39993119     -35606.771     0.49991908     -35606.645     0.59991715     -35606.941     0.69996628     -35607.343     0.79990912     -35607.655     0.89988694     -35607.842     1              -35607.904     
       360   0.066137895      2.2462348e-05  0.0014226514   0.0020525605   0.44465195     1.9682254      1.2584758      2.6881578      0              -35608.616     0.099984553    -35608.479     0.19997197     -35607.978     0.29995578     -35607.307     0.39993959     -35606.773     0.49992744     -35606.647     0.59991664     -35606.944     0.69992378     -35607.345     0.79990413     -35607.657     0.89989518     -35607.844     1              -35607.906     
       370   0.062278023      8.3078385e-05  0.001341376    0.0019290374   0.4461316      1.9685891      1.257831       2.6884367      0              -35608.618     0.099989009    -35608.481     0.19997711     -35607.981     0.29996182     -35607.309     0.39994633     -35606.775     0.49993467     -35606.649     0.59992802     -35606.946     0.69995287     -35607.347     0.79991578     -35607.659     0.89990151     -35607.846     1              -35607.907     
       380   0.059197989      8.3151487e-06  0.0012762789   0.0018305357   0.44726113     1.9688628      1.2573411      2.688665       0              -35608.62      0.099992076    -35608.483     0.19998063     -35607.982     0.29996593     -35607.31      0.39995092     -35606.776     0.49993948     -35606.651     0.59993162     -35606.948     0.69994905     -35607.349     0.79991853     -35607.66      0.89990674     -35607.847     1              -35607.908     
       390   0.056090494      1.7759186e-06  0.0012103731   0.0017312373   0.44838232     1.9691221      1.2568674      2.6889071      0              -35608.621     0.09999473     -35608.485     0.19998368     -35607.984     0.29996953     -35607.312     0.39995497     -35606.777     0.49994375     -35606.652     0.59993609     -35606.949     0.69995267     -35607.35      0.79992296     -35607.661     0.89991199     -35607.848     1              -35607.909     
       400   0.052609409      0.0002328472   0.0011362462   0.001620124    0.4496151      1.9693924      1.2563618      2.6891935      0              -35608.623     0.099997182    -35608.487     0.19998643     -35607.985     0.29997275     -35607.313     0.39995856     -35606.779     0.49994748     -35606.654     0.59994044     -35606.951     0.69995867     -35607.352     0.79992903     -35607.663     0.89991802     -35607.849     1              -35607.91      
       410   0.049918249      4.9723767e-06  0.0010786991   0.0015343308   0.45054417     1.9695875      1.25599        2.6894116      0              -35608.624     0.099999202    -35608.488     0.19998903     -35607.986     0.29997605     -35607.314     0.39996251     -35606.78      0.4999518      -35606.655     0.59994151     -35606.952     0.6999431      -35607.353     0.79992755     -35607.664     0.89992207     -35607.85      1              -35607.911     
       420   0.047193104      1.3678456e-05  0.0010201946   0.0014475494   0.45149262     1.9697704      1.2556284      2.6896498      0              -35608.626     0.10000088     -35608.489     0.19999117     -35607.987     0.29997877     -35607.315     0.39996577     -35606.78      0.49995544     -35606.656     0.59994739     -35606.953     0.6999571      -35607.354     0.79993391     -35607.665     0.89992638     -35607.851     1              -35607.911     
       430   0.044865402      1.1508871e-06  0.00097001786  0.0013735048   0.45228629     1.9699167      1.2553332      2.689859       0              -35608.627     0.10000215     -35608.49      0.19999279     -35607.988     0.29998084     -35607.316     0.39996826     -35606.781     0.49995819     -35606.657     0.59995        -35606.954     0.69995775     -35607.355     0.79993674     -35607.666     0.8999301      -35607.852     1              -35607.912     
       440   0.042258516      0.0002969201   0.00091358305  0.0012906556   0.45316947     1.9700687      1.2550169      2.6901071      0              -35608.628     0.10000322     -35608.491     0.19999407     -35607.989     0.29998244     -35607.317     0.39997015     -35606.782     0.49996022     -35606.658     0.59995264     -35606.956     0.69996225     -35607.356     0.79994117     -35607.667     0.89993442     -35607.852     1              -35607.913     
       450   0.040101594      5.5427963e-05  0.00086667654  0.0012221618   0.45388986     1.9701856      1.2547672      2.6903104      0              -35608.628     0.1000043      -35608.492     0.19999562     -35607.99      0.29998454     -35607.317     0.39997278     -35606.783     0.49996319     -35606.658     0.59995354     -35606.956     0.69995228     -35607.357     0.79994062     -35607.668     0.89993752     -35607.853     1              -35607.913     
       460   0.038257009      8.6239639e-07  0.00082639655  0.0011636155   0.45451425     1.9702779      1.2545611      2.6904948      0              -35608.629     0.10000507     -35608.493     0.19999672     -35607.991     0.29998605     -35607.318     0.39997469     -35606.783     0.49996539     -35606.659     0.5999569      -35606.957     0.69995929     -35607.358     0.7999442      -35607.668     0.89994027     -35607.853     1              -35607.913     
       470   0.036234554      7.8176753e-07  0.00078204218  0.0010994396   0.45519447     1.9703721      1.254344       2.6907052      0              -35608.63      0.10000577     -35608.494     0.1999977      -35607.992     0.29998738     -35607.318     0.39997638     -35606.784     0.49996732     -35606.659     0.59995956     -35606.958     0.69996394     -35607.358     0.79994753     -35607.669     0.89994337     -35607.854     1              -35607.914     
       480   0.034067543      9.5987732e-05  0.00073427429  0.0010306747   0.4559157      1.9704652      1.2541222      2.6909373      0              -35608.631     0.10000644     -35608.495     0.19999867     -35607.992     0.29998873     -35607.319     0.3999781      -35606.784     0.49996924     -35606.66      0.59995987     -35606.959     0.69995617     -35607.359     0.79994794     -35607.67      0.89994659     -35607.855     1              -35607.914     
       490   0.032373082      8.3288966e-05  0.00069672838  0.00097688428  0.45648987     1.970531       1.2539553      2.6911268      0              -35608.631     0.10000698     -35608.495     0.1999995      -35607.993     0.29998993     -35607.319     0.39997966     -35606.785     0.49997109     -35606.661     0.59996268     -35606.959     0.69996195     -35607.36      0.79995106     -35607.67      0.89994902     -35607.855     1              -35607.915     
       500   0.030904073      3.1982891e-06  0.00066402624  0.00093021961  0.45698564     1.9705839      1.253816       2.691296       0              -35608.632     0.1000074      -35608.496     0.20000018     -35607.993     0.29999091     -35607.32      0.39998096     -35606.785     0.49997259     -35606.661     0.59996426     -35606.96      0.69996272     -35607.36      0.79995272     -35607.671     0.89995113     -35607.855     1              -35607.915     
       510   0.029404095      5.3597658e-07  0.00063047642  0.00088252133  0.45749552     1.9706335      1.2536786      2.6914759      0              -35608.632     0.10000778     -35608.496     0.20000078     -35607.994     0.29999179     -35607.32      0.39998213     -35606.785     0.49997398     -35606.661     0.59996605     -35606.96      0.69996529     -35607.361     0.79995485     -35607.671     0.89995327     -35607.856     1              -35607.915     
       520   0.04809098       0.0010348302   0.00058714672  0.00082117848  0.4581552      1.9706908      1.2535093      2.6917262      0              -35608.632     0.10000786     -35608.497     0.2000008      -35607.994     0.29999182     -35607.321     0.39998218     -35606.786     0.49997395     -35606.662     0.59996645     -35606.961     0.69996826     -35607.361     0.7999583      -35607.672     0.89995638     -35607.856     1              -35607.915     
       530   0.026433685      4.4189501e-07  0.0005634986   0.00078782565  0.45851353     1.9707188      1.2534209      2.6918521      0              -35608.633     0.10000845     -35608.497     0.20000191     -35607.995     0.29999349     -35607.321     0.39998442     -35606.786     0.49997667     -35606.662     0.59996872     -35606.961     0.69996594     -35607.362     0.799958       -35607.672     0.89995744     -35607.856     1              -35607.915     
       540   0.025085741      4.0177636e-07  0.00053283198  0.00074469729  0.45898464     1.9707515      1.25331        2.6920347      0              -35608.633     0.10000871     -35608.498     0.20000237     -35607.995     0.2999942      -35607.321     0.39998538     -35606.786     0.49997782     -35606.662     0.59997068     -35606.962     0.69997046     -35607.362     0.79996043     -35607.672     0.89995933     -35607.857     1              -35607.916     
       550   0.025014239      0.00011001788  0.00049870601  0.00069686745  0.45950618     1.9707836      1.2531924      2.6922448      0              -35608.633     0.10000896     -35608.498     0.2000028      -35607.995     0.29999487     -35607.321     0.39998631     -35606.786     0.49997891     -35606.663     0.59997095     -35606.962     0.69996655     -35607.363     0.79996104     -35607.673     0.8999614      -35607.857     1              -35607.916     
       560   0.022676023      3.340771e-07   0.00047749537  0.00066722421  0.45983714     1.9708008      1.2531216      2.6923795      0              -35608.634     0.10000918     -35608.498     0.20000322     -35607.996     0.29999552     -35607.322     0.3999872      -35606.786     0.49997999     -35606.663     0.59997275     -35606.962     0.69997045     -35607.363     0.79996279     -35607.673     0.89996258     -35607.857     1              -35607.916     
       570   0.029933856      0.00031468929  0.00044480795  0.0006216581   0.46034762     1.9708238      1.2530168      2.6925997      0              -35608.634     0.10000928     -35608.499     0.20000339     -35607.996     0.29999583     -35607.322     0.39998765     -35606.787     0.49998052     -35606.663     0.59997374     -35606.963     0.69997308     -35607.363     0.7999651      -35607.673     0.89996464     -35607.857     1              -35607.916     
       580   0.020415198      2.7527171e-07  0.0004248457   0.00059390047  0.46066054     1.9708357      1.2529554      2.6927336      0              -35608.634     0.10000955     -35608.499     0.20000391     -35607.996     0.29999664     -35607.322     0.39998876     -35606.787     0.49998187     -35606.663     0.59997464     -35606.963     0.69997091     -35607.364     0.79996512     -35607.674     0.89996563     -35607.858     1              -35607.916     
       590   0.019431665      4.2695901e-07  0.00040166704  0.00056172965  0.46103026     1.9708471      1.252886       2.6928994      0              -35608.634     0.10000969     -35608.499     0.20000421     -35607.996     0.29999712     -35607.322     0.39998944     -35606.787     0.4999827      -35606.663     0.59997598     -35606.963     0.6999737      -35607.364     0.79996673     -35607.674     0.89996694     -35607.858     1              -35607.916     
       600   0.018523605      2.2958747e-07  0.00038009003  0.00053183669  0.46137671     1.9708557      1.2528236      2.6930597      0              -35608.634     0.10000982     -35608.499     0.20000446     -35607.997     0.29999754     -35607.322     0.39999004     -35606.787     0.49998342     -35606.664     0.59997677     -35606.963     0.69997421     -35607.364     0.79996777     -35607.674     0.89996815     -35607.858     1              -35607.916     
       610   0.018858429      5.2018359e-05  0.00035787771  0.00050111333  0.46173655     1.9708625      1.2527615      2.6932314      0              -35608.635     0.10000994     -35608.5       0.2000047      -35607.997     0.29999793     -35607.322     0.39999061     -35606.787     0.4999841      -35606.664     0.5999771      -35606.964     0.69997254     -35607.364     0.79996828     -35607.674     0.89996937     -35607.858     1              -35607.917     
       620   0.01693207       9.2246915e-07  0.00034178417  0.00047888208  0.46200281     1.9708659      1.2527176      2.6933604      0              -35608.635     0.10001006     -35608.5       0.20000494     -35607.997     0.29999832     -35607.323     0.39999116     -35606.787     0.49998478     -35606.664     0.59997811     -35606.964     0.69997437     -35607.365     0.79996931     -35607.674     0.89997022     -35607.858     1              -35607.917     
       630   0.016224401      1.7842447e-07  0.00032451303  0.0004550476   0.46229117     1.9708682      1.2526717      2.6935044      0              -35608.635     0.10001015     -35608.5       0.20000514     -35607.997     0.29999865     -35607.323     0.39999164     -35606.787     0.49998537     -35606.664     0.59997886     -35606.964     0.6999753      -35607.365     0.79997022     -35607.675     0.89997114     -35607.858     1              -35607.917     
       640   0.017880709      6.2075145e-05  0.00030380725  0.00042650056  0.46264223     1.9708692      1.2526182      2.6936855      0              -35608.635     0.10001023     -35608.5       0.20000531     -35607.997     0.29999894     -35607.323     0.39999207     -35606.787     0.4999859      -35606.664     0.59997962     -35606.964     0.69997655     -35607.365     0.79997141     -35607.675     0.89997228     -35607.859     1              -35607.917     
       650   0.024160052      0.00022818192  0.00028827206  0.00040509847  0.46291011     1.9708686      1.2525791      2.6938279      0              -35608.635     0.10001028     -35608.5       0.2000054      -35607.998     0.29999912     -35607.323     0.39999234     -35606.787     0.49998622     -35606.664     0.59997986     -35606.964     0.69997628     -35607.365     0.79997202     -35607.675     0.89997312     -35607.859     1              -35607.917     
       660   0.014226606      6.2184143e-06  0.00027460917  0.00038628427  0.4631489      1.970867       1.2525454      2.6939554      0              -35608.635     0.10001042     -35608.5       0.20000569     -35607.998     0.29999958     -35607.323     0.39999298     -35606.787     0.499987       -35606.664     0.59998063     -35606.965     0.69997624     -35607.366     0.79997239     -35607.675     0.89997375     -35607.859     1              -35607.917     
       670   0.013719831      1.2776927e-07  0.00026124243  0.00036788318  0.4633872      1.9708645      1.252513       2.6940869      0              -35608.635     0.10001049     -35608.501     0.20000584     -35607.998     0.29999983     -35607.323     0.39999335     -35606.787     0.49998746     -35606.664     0.59998126     -35606.965     0.69997715     -35607.366     0.79997311     -35607.675     0.89997443     -35607.859     1              -35607.917     
       680   0.013345288      4.1824413e-07  0.00024634159  0.00034737327  0.46365784     1.9708606      1.2524776      2.6942402      0              -35608.635     0.10001056     -35608.501     0.20000599     -35607.998     0.30000009     -35607.323     0.39999372     -35606.788     0.49998793     -35606.664     0.59998198     -35606.965     0.6999785      -35607.366     0.799974       -35607.676     0.89997518     -35607.859     1              -35607.917     
       690   0.024727429      0.00027010609  0.00023198251  0.00032760863  0.46392362     1.9708558      1.2524441      2.6943968      0              -35608.635     0.10001055     -35608.501     0.20000598     -35607.998     0.30000011     -35607.323     0.39999378     -35606.788     0.49998799     -35606.665     0.59998195     -35606.965     0.69997818     -35607.366     0.79997463     -35607.676     0.89997598     -35607.859     1              -35607.917     
       700   0.01274537       1.002121e-07   0.00022178294  0.00031356689  0.46411607     1.9708516      1.2524206      2.6945093      0              -35608.635     0.10001069     -35608.501     0.20000626     -35607.998     0.30000054     -35607.323     0.39999438     -35606.788     0.49998873     -35606.665     0.59998274     -35606.965     0.69997843     -35607.366     0.7999749      -35607.676     0.89997639     -35607.859     1              -35607.917     
       710   0.013472987      2.2258566e-05  0.00020679968  0.00029293235  0.46440623     1.9708442      1.2523865      2.6946864      0              -35608.635     0.10001075     -35608.501     0.20000637     -35607.998     0.30000075     -35607.323     0.3999947      -35606.788     0.49998913     -35606.665     0.59998349     -35606.965     0.69998025     -35607.366     0.79997592     -35607.676     0.89997714     -35607.859     1              -35607.917     
       720   0.014238066      3.8822646e-05  0.00019601173  0.00027806707  0.46461972     1.9708381      1.2523623      2.69482        0              -35608.636     0.10001081     -35608.501     0.2000065      -35607.998     0.30000096     -35607.323     0.399995       -35606.788     0.4999895      -35606.665     0.5999837      -35606.965     0.69997954     -35607.367     0.79997613     -35607.676     0.89997765     -35607.859     1              -35607.917     
       730   0.011965787      7.8737363e-08  0.00018742808  0.00026623245  0.46479368     1.9708327      1.2523432      2.6949308      0              -35608.636     0.10001086     -35608.501     0.20000661     -35607.999     0.30000114     -35607.323     0.39999526     -35606.788     0.49998983     -35606.665     0.59998412     -35606.966     0.69997998     -35607.367     0.79997653     -35607.676     0.89997805     -35607.859     1              -35607.917     
       740   0.011740019      7.2596209e-08  0.00017683536  0.00025161775  0.46501339     1.9708252      1.2523197      2.6950741      0              -35608.636     0.10001091     -35608.501     0.20000671     -35607.999     0.30000132     -35607.323     0.39999552     -35606.788     0.49999014     -35606.665     0.59998458     -35606.966     0.69998075     -35607.367     0.79997709     -35607.677     0.89997855     -35607.86      1              -35607.917     
       750   0.011536555      3.1245339e-06  0.00016586332  0.00023646497  0.46524677     1.9708167      1.2522955      2.6952303      0              -35608.636     0.10001097     -35608.501     0.20000682     -35607.999     0.3000015      -35607.324     0.39999579     -35606.788     0.49999047     -35606.665     0.59998483     -35606.966     0.69998038     -35607.367     0.7999774      -35607.677     0.89997906     -35607.86      1              -35607.917     
       760   0.011368217      6.2527155e-08  0.00015853658  0.00022633642  0.46540773     1.9708104      1.2522793      2.6953398      0              -35608.636     0.10001101     -35608.502     0.2000069      -35607.999     0.30000163     -35607.324     0.39999599     -35606.788     0.49999072     -35606.665     0.59998526     -35606.966     0.69998132     -35607.367     0.79997787     -35607.677     0.89997939     -35607.86      1              -35607.917     
       770   0.011179699      5.7431628e-08  0.0001487512   0.00021279439  0.46562781     1.9708013      1.2522577      2.6954933      0              -35608.636     0.10001106     -35608.502     0.20000699     -35607.999     0.30000178     -35607.324     0.39999621     -35606.788     0.499991       -35606.665     0.59998564     -35606.966     0.69998188     -35607.367     0.79997836     -35607.677     0.89997985     -35607.86      1              -35607.917     
       780   0.011036126      5.3567561e-08  0.00014105989  0.00020213661  0.46580575     1.9707936      1.2522408      2.6956201      0              -35608.636     0.1000111      -35608.502     0.20000707     -35607.999     0.30000192     -35607.324     0.39999641     -35606.788     0.49999124     -35606.665     0.5999858      -35606.966     0.69998151     -35607.367     0.79997853     -35607.677     0.89998019     -35607.86      1              -35607.917     
       790   0.010900669      4.9924815e-08  0.00013357366  0.00019175002  0.46598475     1.9707855      1.2522241      2.6957499      0              -35608.636     0.10001114     -35608.502     0.20000714     -35607.999     0.30000205     -35607.324     0.3999966      -35606.788     0.49999148     -35606.665     0.59998622     -35606.966     0.69998245     -35607.368     0.79997901     -35607.677     0.89998052     -35607.86      1              -35607.917     
       800   0.01858339       0.00014424426  0.00012505419  0.00017991188  0.46619475     1.9707756      1.252205       2.6959069      0              -35608.636     0.10001115     -35608.502     0.20000714     -35607.999     0.30000205     -35607.324     0.39999662     -35606.788     0.4999915      -35606.665     0.59998626     -35606.966     0.69998257     -35607.368     0.79997943     -35607.677     0.89998095     -35607.86      1              -35607.917     
       810   0.010664633      5.9978986e-07  0.00011958526  0.00017230115  0.46633362     1.9707688      1.2521927      2.6960108      0              -35608.636     0.10001122     -35608.502     0.20000728     -35607.999     0.30000228     -35607.324     0.39999693     -35606.788     0.49999189     -35606.665     0.59998663     -35606.966     0.69998249     -35607.368     0.7999795      -35607.677     0.89998114     -35607.86      1              -35607.917     
       820   0.010564937      4.0851904e-08  0.00011376514  0.00016419106  0.46648596     1.9707612      1.2521794      2.6961278      0              -35608.636     0.10001126     -35608.502     0.20000734     -35607.999     0.30000237     -35607.324     0.39999708     -35606.788     0.49999207     -35606.665     0.59998689     -35606.966     0.6999829      -35607.368     0.79997979     -35607.677     0.89998139     -35607.86      1              -35607.917     
       830   0.01046562       3.8161744e-08  0.00010751708  0.00015547122  0.46665463     1.9707525      1.2521649      2.6962596      0              -35608.636     0.10001129     -35608.502     0.2000074      -35607.999     0.30000247     -35607.324     0.39999722     -35606.788     0.49999224     -35606.665     0.59998713     -35606.967     0.69998325     -35607.368     0.79998008     -35607.678     0.89998166     -35607.86      1              -35607.917     
       840   0.010602311      1.0465051e-05  0.00010108021  0.00014647186  0.46683441     1.970743       1.2521498      2.696403       0              -35608.636     0.10001132     -35608.502     0.20000745     -35608         0.30000256     -35607.324     0.39999736     -35606.788     0.49999241     -35606.665     0.59998725     -35606.967     0.69998302     -35607.368     0.79998025     -35607.678     0.89998193     -35607.86      1              -35607.917     
       850   0.010301129      2.5755372e-07  9.6526188e-05  0.00014009398  0.46696648     1.9707358      1.2521389      2.6965097      0              -35608.636     0.10001136     -35608.502     0.20000751     -35608         0.30000265     -35607.324     0.39999748     -35606.788     0.49999257     -35606.665     0.5999875      -35606.967     0.69998347     -35607.368     0.7999805      -35607.678     0.89998211     -35607.86      1              -35607.917     
       860   0.010229869      3.1738193e-08  9.1739785e-05  0.00013338022  0.46710945     1.9707279      1.2521272      2.6966271      0              -35608.636     0.10001138     -35608.502     0.20000755     -35608         0.30000272     -35607.324     0.3999976      -35606.788     0.49999271     -35606.665     0.59998768     -35606.967     0.69998372     -35607.368     0.79998071     -35607.678     0.89998231     -35607.86      1              -35607.917     
       870   0.016093231      0.00010138063  8.5087107e-05  0.00012402955  0.46731616     1.9707163      1.2521107      2.6968009      0              -35608.636     0.10001139     -35608.502     0.20000755     -35608         0.30000273     -35607.324     0.39999762     -35606.788     0.49999273     -35606.665     0.59998768     -35606.967     0.69998363     -35607.369     0.79998096     -35607.678     0.89998261     -35607.86      1              -35607.917     
       880   0.010091597      2.7944895e-08  8.1745201e-05  0.00011932285  0.46742447     1.97071        1.2521021      2.696892       0              -35608.636     0.10001145     -35608.502     0.20000765     -35608         0.30000288     -35607.324     0.39999783     -35606.788     0.499993       -35606.665     0.59998804     -35606.967     0.69998407     -35607.369     0.79998111     -35607.678     0.89998271     -35607.86      1              -35607.917     
       890   0.010029536      2.6239471e-08  7.7056259e-05  0.0001127079   0.46758137     1.9707009      1.2520899      2.6970271      0              -35608.636     0.10001147     -35608.503     0.20000769     -35608         0.30000295     -35607.324     0.39999793     -35606.788     0.49999313     -35606.665     0.59998822     -35606.967     0.69998435     -35607.369     0.79998132     -35607.678     0.8999829      -35607.861     1              -35607.917     
       900   0.010027018      6.8982981e-06  7.24096e-05    0.00010613856  0.46774354     1.9706913      1.2520773      2.697169       0              -35608.636     0.1000115      -35608.503     0.20000772     -35608         0.30000301     -35607.324     0.39999802     -35606.788     0.49999323     -35606.665     0.59998837     -35606.967     0.69998457     -35607.369     0.79998154     -35607.678     0.89998309     -35607.861     1              -35607.917     
       901   0.0099676446     2.4533624e-08  7.222959e-05   0.00010588375  0.46774998     1.9706909      1.2520769      2.6971746      0              -35608.636     0.1000115      -35608.503     0.20000773     -35608         0.30000302     -35607.324     0.39999804     -35606.788     0.49999325     -35606.665     0.59998839     -35606.967     0.69998457     -35607.369     0.79998153     -35607.678     0.89998309     -35607.861     1              -35607.917     
Climbing replica = 6
    Step     MaxReplicaForce  MaxAtomForce      GradV0         GradV1         GradVc          EBF            EBR            RDT            RD1            PE1            RD2            PE2            RD3            PE3            RD4            PE4            RD5            PE5            RD6            PE6            RD7            PE7            RD8            PE8            RD9            PE9            RD10           PE10           RD11           PE11      
       901   0.46776108       0.11479863     7.222959e-05   0.00010588375  0.46774998     1.9706909      1.2520769      2.6971746      0              -35608.636     0.1000115      -35608.503     0.20000773     -35608         0.30000302     -35607.324     0.39999804     -35606.788     0.49999325     -35606.665     0.59998839     -35606.967     0.69998457     -35607.369     0.79998153     -35607.678     0.89998309     -35607.861     1              -35607.917     
       911   0.049853817      0.0017108474   6.817092e-05   0.00010013311  0.0074552081   1.9871734      1.268557       2.6984585      0              -35608.636     0.097158625    -35608.513     0.1942061      -35608.039     0.29122642     -35607.386     0.38833585     -35606.836     0.47471845     -35606.649     0.58869972     -35606.917     0.69159047     -35607.334     0.79437494     -35607.663     0.89718288     -35607.857     1              -35607.917     
       921   0.025953804      0.00026988622  6.4380894e-05  9.475165e-05   0.0023291074   1.9870973      1.2684787      2.69877        0              -35608.636     0.095401643    -35608.517     0.19097705     -35608.057     0.28655911     -35607.414     0.38218656     -35606.86      0.47461554     -35606.649     0.58231692     -35606.894     0.68677753     -35607.317     0.79119018     -35607.655     0.89561876     -35607.855     1              -35607.917     
       931   0.011335919      2.0529408e-05  6.1678723e-05  9.0907659e-05  0.001628753    1.9870794      1.2684595      2.6992041      0              -35608.636     0.095079035    -35608.518     0.19026964     -35608.06      0.28545699     -35607.421     0.38066296     -35606.866     0.47454512     -35606.649     0.58070145     -35606.889     0.68552668     -35607.313     0.79033492     -35607.653     0.89517631     -35607.855     1              -35607.917     
       941   0.010450509      1.6831585e-06  5.8433147e-05  8.6282392e-05  0.0012004167   1.9870674      1.2684458      2.6995996      0              -35608.636     0.094970215    -35608.518     0.18996907     -35608.062     0.28496397     -35607.424     0.37996298     -35606.869     0.47453389     -35606.649     0.5799577      -35606.886     0.68495207     -35607.311     0.78994348     -35607.652     0.89496645     -35607.854     1              -35607.917     
       951   0.015544594      9.5091469e-05  5.4748572e-05  8.1019827e-05  0.0009001404   1.9870591      1.2684357      2.6999263      0              -35608.636     0.09495188     -35608.518     0.18988402     -35608.063     0.28481183     -35607.425     0.37973916     -35606.87      0.4745625      -35606.649     0.5797214      -35606.885     0.6847746      -35607.311     0.78982822     -35607.652     0.89490292     -35607.854     1              -35607.917     
       961   0.010091351      8.8079964e-08  5.2515429e-05  7.7823736e-05  0.00076751326  1.9870555      1.2684312      2.700089       0              -35608.636     0.094954064    -35608.518     0.18987598     -35608.063     0.28479369     -35607.426     0.3797102      -35606.871     0.47458707     -35606.649     0.57969163     -35606.885     0.68475476     -35607.311     0.78981813     -35607.652     0.89489736     -35607.854     1              -35607.917     
       971   0.010005722      4.7507289e-08  4.9478631e-05  7.3469335e-05  0.00062388433  1.9870518      1.2684262      2.7002932      0              -35608.636     0.094959451    -35608.519     0.18988016     -35608.064     0.28479699     -35607.426     0.37971242     -35606.871     0.47462159     -35606.649     0.57969479     -35606.885     0.68476037     -35607.311     0.78982569     -35607.652     0.89490182     -35607.854     1              -35607.917     
       973   0.0099952373     4.3991013e-08  4.9046158e-05  7.2848381e-05  0.00060630909  1.9870514      1.2684255      2.7003213      0              -35608.636     0.094960221    -35608.519     0.18988138     -35608.064     0.28479873     -35607.426     0.37971467     -35606.871     0.47462644     -35606.649     0.57969724     -35606.885     0.6847625      -35607.311     0.78982758     -35607.652     0.89490293     -35607.854     1              -35607.917     
