LAMMPS (29 Aug 2024)
Processor partition = 3
units metal
atom_style atomic
dimension 3
boundary p p p

atom_modify     map array
#atom_modify     map array sort 0 0.0

read_data 1500K_image.coords.0
Reading data file ...
  orthogonal box = (0 0 0) to (48.302314 50.197237 45.139088)
  1 by 1 by 1 MPI processor grid
  reading atoms ...
  4861 atoms
  read_data CPU = 0.022 seconds

# neighbor parameters
neighbor 2.0 bin
neigh_modify every 1 delay 0 check no

# interatomic potential parameters
pair_style     pod
pair_coeff * * HfO2_param.pod HfO2_coefficients.pod Hf O Hf
**************** Begin of POD Potentials ****************
species: Hf O 
periodic boundary conditions: 1 1 1
number of environment clusters: 1
number of principal compoments: 2
inner cut-off radius: 1.2
outer cut-off radius: 5.5
bessel polynomial degree: 4
inverse polynomial degree: 10
one-body potential: 1
two-body radial basis functions: 8
three-body radial basis functions: 8
three-body angular degree: 5
four-body radial basis functions: 6
four-body angular degree: 4
five-body radial basis functions: 5
five-body angular degree: 3
six-body radial basis functions: 4
six-body angular degree: 2
seven-body radial basis functions: 0
seven-body angular degree: 0
number of local descriptors per element for one-body potential: 1
number of local descriptors per element for two-body potential: 16
number of local descriptors per element for three-body potential: 144
number of local descriptors per element for four-body potential: 264
number of local descriptors per element for five-body potential: 468
number of local descriptors per element for six-body potential: 387
number of local descriptors per element for seven-body potential: 0
number of local descriptors per element for all potentials: 1280
number of global descriptors: 2560
**************** End of POD Potentials ****************

**************** Begin of Model Coefficients ****************
total number of coefficients for POD potential: 2560
total number of elements for PCA projection matrix: 0
total number of elements for PCA centroids: 0
**************** End of Model Coefficients ****************


#variable        u uloop 20
variable i equal part

region  hopblock block 20.0 28.0 22.0 31.0 20.0 25.0
group   nebatoms region hopblock
16 atoms in group nebatoms
group   oatom type 2
1 atoms in group oatom
group   nebHf subtract nebatoms oatom
15 atoms in group nebHf
set     group nebHf type 3
Setting atom values ...
  15 settings made for type

dump            1 all atom 100 dump.neb.$i
dump            1 all atom 100 dump.neb.3

timestep 0.01
fix             1 nebatoms neb 1.0 parallel ideal
min_style       quickmin

neb             0.0 0.01 1000 1000 10 each 1500K_image.coords.$i
neb             0.0 0.01 1000 1000 10 each 1500K_image.coords.3
Neighbor list info ...
  update: every = 1 steps, delay = 0 steps, check = no
  max neighbors/atom: 2000, page size: 100000
  master list distance cutoff = 7.5
  ghost atom cutoff = 7.5
  binsize = 3.75, bins = 13 14 13
  1 neighbor lists, perpetual/occasional/extra = 1 0 0
  (1) pair pod, perpetual
      attributes: full, newton on
      pair build: full/bin/atomonly
      stencil: full/bin/3d
      bin: standard
Per MPI rank memory allocation (min/avg/max) = 4.051 | 4.051 | 4.051 Mbytes
   Step          Temp          E_pair         E_mol          TotEng         Press     
         0   0             -34621.068      0             -34621.068      26851.605    
       901   4.7657449e-06 -35607.324      0             -35607.324      81.95604     
Loop time of 1382.9 on 1 procs for 901 steps with 4861 atoms

48.8% CPU use with 1 MPI tasks x no OpenMP threads

Minimization stats:
  Stopping criterion = force tolerance
  Energy initial, next-to-last, final = 
     -34621.0680052977   -35607.324222424  -35607.3242242189
  Force two-norm initial, final = 116.59572 0.0059356159
  Force max component initial, final = 4.4484179 0.00012671886
  Final line search alpha, max atom move = 0 0
  Iterations, force evaluations = 901 901

MPI task timing breakdown:
Section |  min time  |  avg time  |  max time  |%varavg| %total
---------------------------------------------------------------
Pair    | 1317.7     | 1317.7     | 1317.7     |   0.0 | 95.28
Neigh   | 19.61      | 19.61      | 19.61      |   0.0 |  1.42
Comm    | 0.37124    | 0.37124    | 0.37124    |   0.0 |  0.03
Output  | 0.048547   | 0.048547   | 0.048547   |   0.0 |  0.00
Modify  | 39.416     | 39.416     | 39.416     |   0.0 |  2.85
Other   |            | 5.762      |            |       |  0.42

Nlocal:           4861 ave        4861 max        4861 min
Histogram: 1 0 0 0 0 0 0 0 0 0
Nghost:           6372 ave        6372 max        6372 min
Histogram: 1 0 0 0 0 0 0 0 0 0
Neighs:              0 ave           0 max           0 min
Histogram: 1 0 0 0 0 0 0 0 0 0
FullNghs:       337304 ave      337304 max      337304 min
Histogram: 1 0 0 0 0 0 0 0 0 0

Total # of neighbors = 337304
Ave neighs/atom = 69.389837
Neighbor list builds = 902
Dangerous builds not checked
Per MPI rank memory allocation (min/avg/max) = 5.241 | 5.241 | 5.241 Mbytes
   Step          Temp          E_pair         E_mol          TotEng         Press     
       901   0             -35607.324      0             -35607.324      81.956011    
       973   1.1640983e-05 -35607.426      0             -35607.426      78.511254    
Loop time of 89.8245 on 1 procs for 72 steps with 4861 atoms

59.1% CPU use with 1 MPI tasks x no OpenMP threads

Minimization stats:
  Stopping criterion = force tolerance
  Energy initial, next-to-last, final = 
     -35607.3242242188  -35607.4259540021  -35607.4259691248
  Force two-norm initial, final = 0.005935702 0.0053855958
  Force max component initial, final = 0.00012671886 0.00015036406
  Final line search alpha, max atom move = 0 0
  Iterations, force evaluations = 72 72

MPI task timing breakdown:
Section |  min time  |  avg time  |  max time  |%varavg| %total
---------------------------------------------------------------
Pair    | 81.82      | 81.82      | 81.82      |   0.0 | 91.09
Neigh   | 2.0851     | 2.0851     | 2.0851     |   0.0 |  2.32
Comm    | 0.10428    | 0.10428    | 0.10428    |   0.0 |  0.12
Output  | 0          | 0          | 0          |   0.0 |  0.00
Modify  | 5.0639     | 5.0639     | 5.0639     |   0.0 |  5.64
Other   |            | 0.7515     |            |       |  0.84

Nlocal:           4861 ave        4861 max        4861 min
Histogram: 1 0 0 0 0 0 0 0 0 0
Nghost:           6372 ave        6372 max        6372 min
Histogram: 1 0 0 0 0 0 0 0 0 0
Neighs:              0 ave           0 max           0 min
Histogram: 1 0 0 0 0 0 0 0 0 0
FullNghs:       336944 ave      336944 max      336944 min
Histogram: 1 0 0 0 0 0 0 0 0 0

Total # of neighbors = 336944
Ave neighs/atom = 69.315779
Neighbor list builds = 73
Dangerous builds not checked

CITE-CITE-CITE-CITE-CITE-CITE-CITE-CITE-CITE-CITE-CITE-CITE-CITE

Your simulation uses code contributions which should be cited:

- Type Label Framework: https://doi.org/10.1021/acs.jpcb.3c08419

@Article{Gissinger24,
 author = {Jacob R. Gissinger, Ilia Nikiforov, Yaser Afshar, Brendon Waters, Moon-ki Choi, Daniel S. Karls, Alexander Stukowski, Wonpil Im, Hendrik Heinz, Axel Kohlmeyer, and Ellad B. Tadmor},
 title = {Type Label Framework for Bonded Force Fields in LAMMPS},
 journal = {J. Phys. Chem. B},
 year =    2024,
 volume =  128,
 number =  13,
 pages =   {3282–-3297}
}

CITE-CITE-CITE-CITE-CITE-CITE-CITE-CITE-CITE-CITE-CITE-CITE-CITE

Total wall time: 0:24:35
