LAMMPS (29 Aug 2024)
Processor partition = 8
units metal
atom_style atomic
dimension 3
boundary p p p

atom_modify     map array
#atom_modify     map array sort 0 0.0

read_data 1500K_image.coords.0
Reading data file ...
  orthogonal box = (0 0 0) to (48.302314 50.197237 45.139088)
  1 by 1 by 1 MPI processor grid
  reading atoms ...
  4861 atoms
  read_data CPU = 0.017 seconds

# neighbor parameters
neighbor 2.0 bin
neigh_modify every 1 delay 0 check no

# interatomic potential parameters
pair_style     pod
pair_coeff * * HfO2_param.pod HfO2_coefficients.pod Hf O Hf
**************** Begin of POD Potentials ****************
species: Hf O 
periodic boundary conditions: 1 1 1
number of environment clusters: 1
number of principal compoments: 2
inner cut-off radius: 1.2
outer cut-off radius: 5.5
bessel polynomial degree: 4
inverse polynomial degree: 10
one-body potential: 1
two-body radial basis functions: 8
three-body radial basis functions: 8
three-body angular degree: 5
four-body radial basis functions: 6
four-body angular degree: 4
five-body radial basis functions: 5
five-body angular degree: 3
six-body radial basis functions: 4
six-body angular degree: 2
seven-body radial basis functions: 0
seven-body angular degree: 0
number of local descriptors per element for one-body potential: 1
number of local descriptors per element for two-body potential: 16
number of local descriptors per element for three-body potential: 144
number of local descriptors per element for four-body potential: 264
number of local descriptors per element for five-body potential: 468
number of local descriptors per element for six-body potential: 387
number of local descriptors per element for seven-body potential: 0
number of local descriptors per element for all potentials: 1280
number of global descriptors: 2560
**************** End of POD Potentials ****************

**************** Begin of Model Coefficients ****************
total number of coefficients for POD potential: 2560
total number of elements for PCA projection matrix: 0
total number of elements for PCA centroids: 0
**************** End of Model Coefficients ****************


#variable        u uloop 20
variable i equal part

region  hopblock block 20.0 28.0 22.0 31.0 20.0 25.0
group   nebatoms region hopblock
16 atoms in group nebatoms
group   oatom type 2
1 atoms in group oatom
group   nebHf subtract nebatoms oatom
15 atoms in group nebHf
set     group nebHf type 3
Setting atom values ...
  15 settings made for type

dump            1 all atom 100 dump.neb.$i
dump            1 all atom 100 dump.neb.8

timestep 0.01
fix             1 nebatoms neb 1.0 parallel ideal
min_style       quickmin

neb             0.0 0.01 1000 1000 10 each 1500K_image.coords.$i
neb             0.0 0.01 1000 1000 10 each 1500K_image.coords.8
Neighbor list info ...
  update: every = 1 steps, delay = 0 steps, check = no
  max neighbors/atom: 2000, page size: 100000
  master list distance cutoff = 7.5
  ghost atom cutoff = 7.5
  binsize = 3.75, bins = 13 14 13
  1 neighbor lists, perpetual/occasional/extra = 1 0 0
  (1) pair pod, perpetual
      attributes: full, newton on
      pair build: full/bin/atomonly
      stencil: full/bin/3d
      bin: standard
Per MPI rank memory allocation (min/avg/max) = 4.052 | 4.052 | 4.052 Mbytes
   Step          Temp          E_pair         E_mol          TotEng         Press     
         0   0             -34627.181      0             -34627.181      26980.887    
       901   1.3553034e-05 -35607.678      0             -35607.678      100.41329    
Loop time of 1382.91 on 1 procs for 901 steps with 4861 atoms

48.8% CPU use with 1 MPI tasks x no OpenMP threads

Minimization stats:
  Stopping criterion = force tolerance
  Energy initial, next-to-last, final = 
     -34627.1807292618  -35607.6783641356  -35607.6783687588
  Force two-norm initial, final = 117.57944 0.0099676446
  Force max component initial, final = 3.8908367 0.00014272079
  Final line search alpha, max atom move = 0 0
  Iterations, force evaluations = 901 901

MPI task timing breakdown:
Section |  min time  |  avg time  |  max time  |%varavg| %total
---------------------------------------------------------------
Pair    | 1318.9     | 1318.9     | 1318.9     |   0.0 | 95.37
Neigh   | 22.208     | 22.208     | 22.208     |   0.0 |  1.61
Comm    | 0.58367    | 0.58367    | 0.58367    |   0.0 |  0.04
Output  | 0.046436   | 0.046436   | 0.046436   |   0.0 |  0.00
Modify  | 33.295     | 33.295     | 33.295     |   0.0 |  2.41
Other   |            | 7.862      |            |       |  0.57

Nlocal:           4861 ave        4861 max        4861 min
Histogram: 1 0 0 0 0 0 0 0 0 0
Nghost:           6372 ave        6372 max        6372 min
Histogram: 1 0 0 0 0 0 0 0 0 0
Neighs:              0 ave           0 max           0 min
Histogram: 1 0 0 0 0 0 0 0 0 0
FullNghs:       340460 ave      340460 max      340460 min
Histogram: 1 0 0 0 0 0 0 0 0 0

Total # of neighbors = 340460
Ave neighs/atom = 70.039087
Neighbor list builds = 902
Dangerous builds not checked
Per MPI rank memory allocation (min/avg/max) = 5.243 | 5.243 | 5.243 Mbytes
   Step          Temp          E_pair         E_mol          TotEng         Press     
       901   0             -35607.678      0             -35607.678      100.4132     
       973   4.0052684e-05 -35607.652      0             -35607.652      99.979433    
Loop time of 89.8246 on 1 procs for 72 steps with 4861 atoms

59.0% CPU use with 1 MPI tasks x no OpenMP threads

Minimization stats:
  Stopping criterion = force tolerance
  Energy initial, next-to-last, final = 
     -35607.6783687588   -35607.652423775  -35607.6524337078
  Force two-norm initial, final = 0.0099675287 0.0099952373
  Force max component initial, final = 0.00014272079 0.00015621325
  Final line search alpha, max atom move = 0 0
  Iterations, force evaluations = 72 72

MPI task timing breakdown:
Section |  min time  |  avg time  |  max time  |%varavg| %total
---------------------------------------------------------------
Pair    | 80.956     | 80.956     | 80.956     |   0.0 | 90.13
Neigh   | 2.0572     | 2.0572     | 2.0572     |   0.0 |  2.29
Comm    | 0.027746   | 0.027746   | 0.027746   |   0.0 |  0.03
Output  | 0          | 0          | 0          |   0.0 |  0.00
Modify  | 5.5423     | 5.5423     | 5.5423     |   0.0 |  6.17
Other   |            | 1.242      |            |       |  1.38

Nlocal:           4861 ave        4861 max        4861 min
Histogram: 1 0 0 0 0 0 0 0 0 0
Nghost:           6372 ave        6372 max        6372 min
Histogram: 1 0 0 0 0 0 0 0 0 0
Neighs:              0 ave           0 max           0 min
Histogram: 1 0 0 0 0 0 0 0 0 0
FullNghs:       340390 ave      340390 max      340390 min
Histogram: 1 0 0 0 0 0 0 0 0 0

Total # of neighbors = 340390
Ave neighs/atom = 70.024686
Neighbor list builds = 73
Dangerous builds not checked

CITE-CITE-CITE-CITE-CITE-CITE-CITE-CITE-CITE-CITE-CITE-CITE-CITE

Your simulation uses code contributions which should be cited:

- Type Label Framework: https://doi.org/10.1021/acs.jpcb.3c08419

@Article{Gissinger24,
 author = {Jacob R. Gissinger, Ilia Nikiforov, Yaser Afshar, Brendon Waters, Moon-ki Choi, Daniel S. Karls, Alexander Stukowski, Wonpil Im, Hendrik Heinz, Axel Kohlmeyer, and Ellad B. Tadmor},
 title = {Type Label Framework for Bonded Force Fields in LAMMPS},
 journal = {J. Phys. Chem. B},
 year =    2024,
 volume =  128,
 number =  13,
 pages =   {3282–-3297}
}

CITE-CITE-CITE-CITE-CITE-CITE-CITE-CITE-CITE-CITE-CITE-CITE-CITE

Total wall time: 0:24:35
