LAMMPS (29 Aug 2024)
Processor partition = 6
Reading data file ...
  orthogonal box = (0 0 0) to (48.302314 50.197237 45.139088)
  1 by 1 by 1 MPI processor grid
  reading atoms ...
  4861 atoms
  read_data CPU = 0.017 seconds
**************** Begin of POD Potentials ****************
species: Hf O 
periodic boundary conditions: 1 1 1
number of environment clusters: 1
number of principal compoments: 2
inner cut-off radius: 1.2
outer cut-off radius: 5.5
bessel polynomial degree: 4
inverse polynomial degree: 10
one-body potential: 1
two-body radial basis functions: 8
three-body radial basis functions: 8
three-body angular degree: 5
four-body radial basis functions: 6
four-body angular degree: 4
five-body radial basis functions: 5
five-body angular degree: 3
six-body radial basis functions: 4
six-body angular degree: 2
seven-body radial basis functions: 0
seven-body angular degree: 0
number of local descriptors per element for one-body potential: 1
number of local descriptors per element for two-body potential: 16
number of local descriptors per element for three-body potential: 144
number of local descriptors per element for four-body potential: 264
number of local descriptors per element for five-body potential: 468
number of local descriptors per element for six-body potential: 387
number of local descriptors per element for seven-body potential: 0
number of local descriptors per element for all potentials: 1280
number of global descriptors: 2560
**************** End of POD Potentials ****************

**************** Begin of Model Coefficients ****************
total number of coefficients for POD potential: 2560
total number of elements for PCA projection matrix: 0
total number of elements for PCA centroids: 0
**************** End of Model Coefficients ****************

16 atoms in group nebatoms
1 atoms in group oatom
15 atoms in group nebHf
Setting atom values ...
  15 settings made for type
Neighbor list info ...
  update: every = 1 steps, delay = 0 steps, check = no
  max neighbors/atom: 2000, page size: 100000
  master list distance cutoff = 7.5
  ghost atom cutoff = 7.5
  binsize = 3.75, bins = 13 14 13
  1 neighbor lists, perpetual/occasional/extra = 1 0 0
  (1) pair pod, perpetual
      attributes: full, newton on
      pair build: full/bin/atomonly
      stencil: full/bin/3d
      bin: standard
Setting up quickmin style minimization ...
  Unit style    : metal
  Current step  : 0
Per MPI rank memory allocation (min/avg/max) = 4.051 | 4.051 | 4.051 Mbytes
   Step          Temp          E_pair         E_mol          TotEng         Press     
         0   0             -34635.01       0             -34635.01       26820.851    
       901   6.500869e-06  -35606.967      0             -35606.967      92.93517     
Loop time of 1382.91 on 1 procs for 901 steps with 4861 atoms

48.8% CPU use with 1 MPI tasks x no OpenMP threads

Minimization stats:
  Stopping criterion = force tolerance
  Energy initial, next-to-last, final = 
     -34635.0099493754  -35606.9671125945  -35606.9671159504
  Force two-norm initial, final = 117.00445 0.0067002032
  Force max component initial, final = 4.4644443 0.00011925403
  Final line search alpha, max atom move = 0 0
  Iterations, force evaluations = 901 901

MPI task timing breakdown:
Section |  min time  |  avg time  |  max time  |%varavg| %total
---------------------------------------------------------------
Pair    | 1317.6     | 1317.6     | 1317.6     |   0.0 | 95.28
Neigh   | 18.748     | 18.748     | 18.748     |   0.0 |  1.36
Comm    | 0.31088    | 0.31088    | 0.31088    |   0.0 |  0.02
Output  | 0.048758   | 0.048758   | 0.048758   |   0.0 |  0.00
Modify  | 40.245     | 40.245     | 40.245     |   0.0 |  2.91
Other   |            | 5.988      |            |       |  0.43

Nlocal:           4861 ave        4861 max        4861 min
Histogram: 1 0 0 0 0 0 0 0 0 0
Nghost:           6372 ave        6372 max        6372 min
Histogram: 1 0 0 0 0 0 0 0 0 0
Neighs:              0 ave           0 max           0 min
Histogram: 1 0 0 0 0 0 0 0 0 0
FullNghs:       339520 ave      339520 max      339520 min
Histogram: 1 0 0 0 0 0 0 0 0 0

Total # of neighbors = 339520
Ave neighs/atom = 69.845711
Neighbor list builds = 902
Dangerous builds not checked
Setting up quickmin style minimization ...
  Unit style    : metal
  Current step  : 901
Per MPI rank memory allocation (min/avg/max) = 5.241 | 5.241 | 5.241 Mbytes
   Step          Temp          E_pair         E_mol          TotEng         Press     
       901   0             -35606.967      0             -35606.967      92.93513     
       973   1.4431969e-05 -35606.885      0             -35606.885      94.213014    
Loop time of 89.8246 on 1 procs for 72 steps with 4861 atoms

59.0% CPU use with 1 MPI tasks x no OpenMP threads

Minimization stats:
  Stopping criterion = force tolerance
  Energy initial, next-to-last, final = 
     -35606.9671159503  -35606.8851565107  -35606.8851592568
  Force two-norm initial, final = 0.0067000237 0.0059895054
  Force max component initial, final = 0.00011925403 0.00017233423
  Final line search alpha, max atom move = 0 0
  Iterations, force evaluations = 72 72

MPI task timing breakdown:
Section |  min time  |  avg time  |  max time  |%varavg| %total
---------------------------------------------------------------
Pair    | 81.743     | 81.743     | 81.743     |   0.0 | 91.00
Neigh   | 1.9417     | 1.9417     | 1.9417     |   0.0 |  2.16
Comm    | 0.037781   | 0.037781   | 0.037781   |   0.0 |  0.04
Output  | 0          | 0          | 0          |   0.0 |  0.00
Modify  | 5.4214     | 5.4214     | 5.4214     |   0.0 |  6.04
Other   |            | 0.6803     |            |       |  0.76

Nlocal:           4861 ave        4861 max        4861 min
Histogram: 1 0 0 0 0 0 0 0 0 0
Nghost:           6372 ave        6372 max        6372 min
Histogram: 1 0 0 0 0 0 0 0 0 0
Neighs:              0 ave           0 max           0 min
Histogram: 1 0 0 0 0 0 0 0 0 0
FullNghs:       339256 ave      339256 max      339256 min
Histogram: 1 0 0 0 0 0 0 0 0 0

Total # of neighbors = 339256
Ave neighs/atom = 69.791401
Neighbor list builds = 73
Dangerous builds not checked

CITE-CITE-CITE-CITE-CITE-CITE-CITE-CITE-CITE-CITE-CITE-CITE-CITE

Your simulation uses code contributions which should be cited:
- Type Label Framework: https://doi.org/10.1021/acs.jpcb.3c08419
The log file lists these citations in BibTeX format.

CITE-CITE-CITE-CITE-CITE-CITE-CITE-CITE-CITE-CITE-CITE-CITE-CITE

Total wall time: 0:24:35
