LAMMPS (29 Aug 2024)
Processor partition = 9
Reading data file ...
  orthogonal box = (0 0 0) to (48.302314 50.197237 45.139088)
  1 by 1 by 1 MPI processor grid
  reading atoms ...
  4861 atoms
  read_data CPU = 0.021 seconds
**************** Begin of POD Potentials ****************
species: Hf O 
periodic boundary conditions: 1 1 1
number of environment clusters: 1
number of principal compoments: 2
inner cut-off radius: 1.2
outer cut-off radius: 5.5
bessel polynomial degree: 4
inverse polynomial degree: 10
one-body potential: 1
two-body radial basis functions: 8
three-body radial basis functions: 8
three-body angular degree: 5
four-body radial basis functions: 6
four-body angular degree: 4
five-body radial basis functions: 5
five-body angular degree: 3
six-body radial basis functions: 4
six-body angular degree: 2
seven-body radial basis functions: 0
seven-body angular degree: 0
number of local descriptors per element for one-body potential: 1
number of local descriptors per element for two-body potential: 16
number of local descriptors per element for three-body potential: 144
number of local descriptors per element for four-body potential: 264
number of local descriptors per element for five-body potential: 468
number of local descriptors per element for six-body potential: 387
number of local descriptors per element for seven-body potential: 0
number of local descriptors per element for all potentials: 1280
number of global descriptors: 2560
**************** End of POD Potentials ****************

**************** Begin of Model Coefficients ****************
total number of coefficients for POD potential: 2560
total number of elements for PCA projection matrix: 0
total number of elements for PCA centroids: 0
**************** End of Model Coefficients ****************

16 atoms in group nebatoms
1 atoms in group oatom
15 atoms in group nebHf
Setting atom values ...
  15 settings made for type
Neighbor list info ...
  update: every = 1 steps, delay = 0 steps, check = no
  max neighbors/atom: 2000, page size: 100000
  master list distance cutoff = 7.5
  ghost atom cutoff = 7.5
  binsize = 3.75, bins = 13 14 13
  1 neighbor lists, perpetual/occasional/extra = 1 0 0
  (1) pair pod, perpetual
      attributes: full, newton on
      pair build: full/bin/atomonly
      stencil: full/bin/3d
      bin: standard
Setting up quickmin style minimization ...
  Unit style    : metal
  Current step  : 0
Per MPI rank memory allocation (min/avg/max) = 4.051 | 4.051 | 4.051 Mbytes
   Step          Temp          E_pair         E_mol          TotEng         Press     
         0   0             -34635.105      0             -34635.105      26582.111    
       901   8.5931535e-06 -35607.861      0             -35607.861      102.33398    
Loop time of 1382.92 on 1 procs for 901 steps with 4861 atoms

48.8% CPU use with 1 MPI tasks x no OpenMP threads

Minimization stats:
  Stopping criterion = force tolerance
  Energy initial, next-to-last, final = 
      -34635.104526878  -35607.8605890647  -35607.8605915929
  Force two-norm initial, final = 116.92343 0.0079736665
  Force max component initial, final = 4.622898 0.00011764031
  Final line search alpha, max atom move = 0 0
  Iterations, force evaluations = 901 901

MPI task timing breakdown:
Section |  min time  |  avg time  |  max time  |%varavg| %total
---------------------------------------------------------------
Pair    | 1318.8     | 1318.8     | 1318.8     |   0.0 | 95.36
Neigh   | 20.688     | 20.688     | 20.688     |   0.0 |  1.50
Comm    | 0.47471    | 0.47471    | 0.47471    |   0.0 |  0.03
Output  | 0.048543   | 0.048543   | 0.048543   |   0.0 |  0.00
Modify  | 35.801     | 35.801     | 35.801     |   0.0 |  2.59
Other   |            | 7.127      |            |       |  0.52

Nlocal:           4861 ave        4861 max        4861 min
Histogram: 1 0 0 0 0 0 0 0 0 0
Nghost:           6372 ave        6372 max        6372 min
Histogram: 1 0 0 0 0 0 0 0 0 0
Neighs:              0 ave           0 max           0 min
Histogram: 1 0 0 0 0 0 0 0 0 0
FullNghs:       337990 ave      337990 max      337990 min
Histogram: 1 0 0 0 0 0 0 0 0 0

Total # of neighbors = 337990
Ave neighs/atom = 69.530961
Neighbor list builds = 902
Dangerous builds not checked
Setting up quickmin style minimization ...
  Unit style    : metal
  Current step  : 901
Per MPI rank memory allocation (min/avg/max) = 5.242 | 5.242 | 5.242 Mbytes
   Step          Temp          E_pair         E_mol          TotEng         Press     
       901   0             -35607.861      0             -35607.861      102.33392    
       973   2.6140786e-05 -35607.854      0             -35607.854      102.32375    
Loop time of 89.8243 on 1 procs for 72 steps with 4861 atoms

59.2% CPU use with 1 MPI tasks x no OpenMP threads

Minimization stats:
  Stopping criterion = force tolerance
  Energy initial, next-to-last, final = 
     -35607.8605915929  -35607.8544720086  -35607.8544775508
  Force two-norm initial, final = 0.0079735978 0.0080748249
  Force max component initial, final = 0.00011764031 0.0001315122
  Final line search alpha, max atom move = 0 0
  Iterations, force evaluations = 72 72

MPI task timing breakdown:
Section |  min time  |  avg time  |  max time  |%varavg| %total
---------------------------------------------------------------
Pair    | 81.573     | 81.573     | 81.573     |   0.0 | 90.81
Neigh   | 2.1089     | 2.1089     | 2.1089     |   0.0 |  2.35
Comm    | 0.13492    | 0.13492    | 0.13492    |   0.0 |  0.15
Output  | 0          | 0          | 0          |   0.0 |  0.00
Modify  | 4.8438     | 4.8438     | 4.8438     |   0.0 |  5.39
Other   |            | 1.164      |            |       |  1.30

Nlocal:           4861 ave        4861 max        4861 min
Histogram: 1 0 0 0 0 0 0 0 0 0
Nghost:           6372 ave        6372 max        6372 min
Histogram: 1 0 0 0 0 0 0 0 0 0
Neighs:              0 ave           0 max           0 min
Histogram: 1 0 0 0 0 0 0 0 0 0
FullNghs:       337960 ave      337960 max      337960 min
Histogram: 1 0 0 0 0 0 0 0 0 0

Total # of neighbors = 337960
Ave neighs/atom = 69.524789
Neighbor list builds = 73
Dangerous builds not checked

CITE-CITE-CITE-CITE-CITE-CITE-CITE-CITE-CITE-CITE-CITE-CITE-CITE

Your simulation uses code contributions which should be cited:
- Type Label Framework: https://doi.org/10.1021/acs.jpcb.3c08419
The log file lists these citations in BibTeX format.

CITE-CITE-CITE-CITE-CITE-CITE-CITE-CITE-CITE-CITE-CITE-CITE-CITE

Total wall time: 0:24:35
