LAMMPS (29 Aug 2024)
Processor partition = 7
Reading data file ...
  orthogonal box = (0 0 0) to (48.302314 50.197237 45.139088)
  1 by 1 by 1 MPI processor grid
  reading atoms ...
  4861 atoms
  read_data CPU = 0.017 seconds
**************** Begin of POD Potentials ****************
species: Hf O 
periodic boundary conditions: 1 1 1
number of environment clusters: 1
number of principal compoments: 2
inner cut-off radius: 1.2
outer cut-off radius: 5.5
bessel polynomial degree: 4
inverse polynomial degree: 10
one-body potential: 1
two-body radial basis functions: 8
three-body radial basis functions: 8
three-body angular degree: 5
four-body radial basis functions: 6
four-body angular degree: 4
five-body radial basis functions: 5
five-body angular degree: 3
six-body radial basis functions: 4
six-body angular degree: 2
seven-body radial basis functions: 0
seven-body angular degree: 0
number of local descriptors per element for one-body potential: 1
number of local descriptors per element for two-body potential: 16
number of local descriptors per element for three-body potential: 144
number of local descriptors per element for four-body potential: 264
number of local descriptors per element for five-body potential: 468
number of local descriptors per element for six-body potential: 387
number of local descriptors per element for seven-body potential: 0
number of local descriptors per element for all potentials: 1280
number of global descriptors: 2560
**************** End of POD Potentials ****************

**************** Begin of Model Coefficients ****************
total number of coefficients for POD potential: 2560
total number of elements for PCA projection matrix: 0
total number of elements for PCA centroids: 0
**************** End of Model Coefficients ****************

16 atoms in group nebatoms
1 atoms in group oatom
15 atoms in group nebHf
Setting atom values ...
  15 settings made for type
Neighbor list info ...
  update: every = 1 steps, delay = 0 steps, check = no
  max neighbors/atom: 2000, page size: 100000
  master list distance cutoff = 7.5
  ghost atom cutoff = 7.5
  binsize = 3.75, bins = 13 14 13
  1 neighbor lists, perpetual/occasional/extra = 1 0 0
  (1) pair pod, perpetual
      attributes: full, newton on
      pair build: full/bin/atomonly
      stencil: full/bin/3d
      bin: standard
Setting up quickmin style minimization ...
  Unit style    : metal
  Current step  : 0
Per MPI rank memory allocation (min/avg/max) = 4.052 | 4.052 | 4.052 Mbytes
   Step          Temp          E_pair         E_mol          TotEng         Press     
         0   0             -34632.743      0             -34632.743      26705.748    
       901   1.2922944e-05 -35607.369      0             -35607.369      94.305426    
Loop time of 1382.91 on 1 procs for 901 steps with 4861 atoms

48.9% CPU use with 1 MPI tasks x no OpenMP threads

Minimization stats:
  Stopping criterion = force tolerance
  Energy initial, next-to-last, final = 
     -34632.7428128598  -35607.3688521036  -35607.3688570496
  Force two-norm initial, final = 116.89373 0.0092770268
  Force max component initial, final = 4.3563044 0.00014782794
  Final line search alpha, max atom move = 0 0
  Iterations, force evaluations = 901 901

MPI task timing breakdown:
Section |  min time  |  avg time  |  max time  |%varavg| %total
---------------------------------------------------------------
Pair    | 1319.3     | 1319.3     | 1319.3     |   0.0 | 95.40
Neigh   | 22.914     | 22.914     | 22.914     |   0.0 |  1.66
Comm    | 0.61936    | 0.61936    | 0.61936    |   0.0 |  0.04
Output  | 0.046564   | 0.046564   | 0.046564   |   0.0 |  0.00
Modify  | 33.502     | 33.502     | 33.502     |   0.0 |  2.42
Other   |            | 6.546      |            |       |  0.47

Nlocal:           4861 ave        4861 max        4861 min
Histogram: 1 0 0 0 0 0 0 0 0 0
Nghost:           6372 ave        6372 max        6372 min
Histogram: 1 0 0 0 0 0 0 0 0 0
Neighs:              0 ave           0 max           0 min
Histogram: 1 0 0 0 0 0 0 0 0 0
FullNghs:       340720 ave      340720 max      340720 min
Histogram: 1 0 0 0 0 0 0 0 0 0

Total # of neighbors = 340720
Ave neighs/atom = 70.092574
Neighbor list builds = 902
Dangerous builds not checked
Setting up quickmin style minimization ...
  Unit style    : metal
  Current step  : 901
Per MPI rank memory allocation (min/avg/max) = 5.242 | 5.242 | 5.242 Mbytes
   Step          Temp          E_pair         E_mol          TotEng         Press     
       901   0             -35607.369      0             -35607.369      94.305347    
       973   3.2144615e-05 -35607.311      0             -35607.311      93.328997    
Loop time of 89.8244 on 1 procs for 72 steps with 4861 atoms

59.2% CPU use with 1 MPI tasks x no OpenMP threads

Minimization stats:
  Stopping criterion = force tolerance
  Energy initial, next-to-last, final = 
     -35607.3688570497  -35607.3106652287   -35607.310673316
  Force two-norm initial, final = 0.0092768805 0.0089535249
  Force max component initial, final = 0.00014782801 0.00012217607
  Final line search alpha, max atom move = 0 0
  Iterations, force evaluations = 72 72

MPI task timing breakdown:
Section |  min time  |  avg time  |  max time  |%varavg| %total
---------------------------------------------------------------
Pair    | 81.215     | 81.215     | 81.215     |   0.0 | 90.42
Neigh   | 1.6432     | 1.6432     | 1.6432     |   0.0 |  1.83
Comm    | 0.079677   | 0.079677   | 0.079677   |   0.0 |  0.09
Output  | 0          | 0          | 0          |   0.0 |  0.00
Modify  | 5.9432     | 5.9432     | 5.9432     |   0.0 |  6.62
Other   |            | 0.9431     |            |       |  1.05

Nlocal:           4861 ave        4861 max        4861 min
Histogram: 1 0 0 0 0 0 0 0 0 0
Nghost:           6372 ave        6372 max        6372 min
Histogram: 1 0 0 0 0 0 0 0 0 0
Neighs:              0 ave           0 max           0 min
Histogram: 1 0 0 0 0 0 0 0 0 0
FullNghs:       340520 ave      340520 max      340520 min
Histogram: 1 0 0 0 0 0 0 0 0 0

Total # of neighbors = 340520
Ave neighs/atom = 70.05143
Neighbor list builds = 73
Dangerous builds not checked

CITE-CITE-CITE-CITE-CITE-CITE-CITE-CITE-CITE-CITE-CITE-CITE-CITE

Your simulation uses code contributions which should be cited:
- Type Label Framework: https://doi.org/10.1021/acs.jpcb.3c08419
The log file lists these citations in BibTeX format.

CITE-CITE-CITE-CITE-CITE-CITE-CITE-CITE-CITE-CITE-CITE-CITE-CITE

Total wall time: 0:24:35
