ITEM: TIMESTEP
1
ITEM: NUMBER OF ATOMS
96
ITEM: BOX BOUNDS xy xz yz pp pp pp
-6.4403088778076913e+00 1.2880622893961601e+01 -6.4403093806325025e+00
-1.0833736355320430e-06 1.1154942820463447e+01 4.1866612459865511e-06
-3.4174111622566566e-06 1.5046359495541475e+01 -1.3796027640120211e-06
ITEM: ATOMS id type x y z
1 1      6.3932634026677     11.1137912153482   0.0534621068844094
2 1  -0.0470575394168275     1.81800832935728     2.56118335983778
3 1     6.39326563280767     11.1137911697163     5.06891088525904
4 1  -0.0470114663023836     1.81800672181521     7.57663740870158
5 1     6.39331246105282     11.1137910408974     10.0843695432041
6 1  -0.0470109238642294     1.81800670908506     12.5920959110289
7 1     11.2234953504102     2.74758720994184   0.0534573114578636
8 1    -1.65713724733421     4.60674282459872     2.56118324975527
9 1     11.2234985781448     2.74758572056907     5.06891234044481
10 1    -1.65709441531444     4.60674189079639     7.57663862666839
11 1     11.2235473542251     2.74758557801358     10.0843667814979
12 1    -1.65709281224207     4.60674171071077     12.5920916982076
13 1     9.61341826168832      5.5363222873834   0.0534573469145022
14 1    -3.26720864007449     7.39547881750456     2.56118324667731
15 1      9.6134186566357     5.53632118816278     5.06890840121562
16 1       -3.26716714429     7.39547715327305     7.57663690139407
17 1     9.61346325542599      5.5363189652263     10.0843653160189
18 1    -3.26716545213922     7.39547683062221     12.5920934432592
19 1      8.0033418751533     8.32505473863317   0.0534584689807741
20 1    -4.87729090351532     10.1842125455241     2.56118333717504
21 1     8.00334336011039      8.3250563057975     5.06891115323466
22 1    -4.87724692660623     10.1842138030568     7.57663757301271
23 1     8.00338895222362     8.32505706743915     10.0843667867189
24 1    -4.87724564289828     10.1842124600605     12.5920957175064
25 1    -3.26719839775713      11.113792569224   0.0534601596320361
26 1     3.17309920454804     1.81800640498773      2.5611833182148
27 1    -3.26719766592583     11.1137925417091     5.06891288266402
28 1     3.17314211161264     1.81800536878412     7.57663835550625
29 1    -3.26715157420063     11.1137927263793     10.0843695466563
30 1     3.17314420041493     1.81800537178796     12.5920949017023
31 1     1.56303288380748     2.74758668363607   0.0534611792371895
32 1     1.56301827247719     4.60674464579908     2.56118604699175
33 1     1.56303436074137     2.74758535111853      5.0689118409643
34 1     1.56305917823251      4.6067406571705      7.5766406257557
35 1     1.56308001029679     2.74758423348808       10.08436954483
36 1     1.56306049354182     4.60674157296561      12.592096113133
37 1  -0.0470461254001177     5.53632173284717   0.0534612852368621
38 1  -0.0470598505182399     7.39547826201371      2.5611872005312
39 1  -0.0470446552969655      5.5363217331562     5.06891446360814
40 1  -0.0470104999241458     7.39547830044527     7.57664141612141
41 1  -0.0469988846846018     5.53631998670764     10.0843698676797
42 1  -0.0470100147843754     7.39547735747606     12.5920995231425
43 1    -1.65712113919301     8.32505602587859   0.0534617010703983
44 1    -1.65713425467306     10.1842130994895     2.56118604104009
45 1    -1.65711927646771     8.32505531121856     5.06891401513306
46 1      -1.657092007436     10.1842162137334     7.57664116253927
47 1     -1.6570714294917     8.32505595582437     10.0843698585556
48 1    -1.65708949482221     10.1842150821271     12.5920955525536
49 1  -0.0470457510981487     11.1137931597684   0.0534602312548602
50 1     6.39325187891871     1.81800580206537     2.56118324941203
51 1  -0.0470438518771605     11.1137924686468     5.06891549380905
52 1     6.39329632402383     1.81800623356689     7.57663799573587
53 1  -0.0469948066845293     11.1137918195883      10.084369847613
54 1     6.39329770685794     1.81800540947117     12.5920923519223
55 1     4.78319014247405     2.74758620214352   0.0534594280570279
56 1     4.78317166666479     4.60674180043106     2.56118325172176
57 1     4.78318984419268     2.74758471863527     5.06891016578216
58 1     4.78321587548357     4.60674207119822     7.57663640309173
59 1     4.78323616803066     2.74758245118899     10.0843667902397
60 1     4.78321689929717       4.606741846724     12.5920939425385
61 1      3.1731083240981     5.53632041407233   0.0534611562665272
62 1     3.17309612411215     7.39547693131435     2.56118718079286
63 1     3.17310984041542     5.53632040849496     5.06891457615399
64 1     3.17314192851142     7.39547824346036      7.5766426712039
65 1     3.17315490907532     5.53632149968344     10.0843698667742
66 1     3.17314403814051     7.39547734572301     12.5920982667808
67 1     1.56303419289516     8.32505697403082   0.0534657924927027
68 1     1.56301855491806     10.1842145842073     2.56118719156166
69 1     1.56303568325441     8.32505650456061     5.06891545723166
70 1     1.56306492984643     10.1842118605402     7.57664190300925
71 1      1.5630851436301     8.32505599855958     10.0843743954865
72 1     1.56306622838878     10.1842123468635      12.592099036107
73 1     3.17310896482904     11.1137918353046   0.0534622390181949
74 1      9.6134069512371     1.81800775589752     2.56118325083567
75 1      3.1731100373225     11.1137911645407     5.06891351833176
76 1     9.61345054758083     1.81800761617758     7.57663703885709
77 1     3.17315997408859     11.1137901359211     10.0843698845721
78 1     9.61345178948907     1.81800678616303     12.5920932782521
79 1     8.00334342253409      2.7475846706675   0.0534573194435268
80 1     8.00332521674439     4.60674239868337     2.56117873273837
81 1     8.00334492019954     2.74758544651345     5.06890842929025
82 1     8.00337134410526     4.60674187527028     7.57663299272475
83 1     8.00339435721668     2.74758615176171      10.084365313387
84 1     8.00337265493061     4.60674142364416     12.5920918248337
85 1     6.39326216380696     5.53632098718339   0.0534572614663213
86 1       6.393255293582     7.39547757253236     2.56118325265517
87 1      6.3932647134213     5.53631990834438     5.06890848739805
88 1     6.39329719101606     7.39547712744712     7.57663812801527
89 1     6.39331099684016     5.53632045193288     10.0843653057203
90 1     6.39329815991143     7.39547680026766     12.5920921908765
91 1     4.78318809470393     8.32505769640518   0.0534607058434229
92 1     4.78317095664668     10.1842120228044     2.56118605128992
93 1     4.78318917388933     8.32505696756709     5.06891506217273
94 1     4.78321910814572     10.1842114400957     7.57664060561633
95 1     4.78323646796681     8.32505615970596     10.0843698766266
96 1     4.78321925116757     10.1842103027496     12.5920961539583
