95
Lattice="10.2846379999999993 0.0000000000000000 0.0000000000000000 0.0000000000000000 10.3902950000000001 0.0000000000000000 -1.7900940000000001 0.0000000000000000 10.5005849999999992" Properties=species:S:1:pos:R:3:forces:R:3 stress="3186.6846137380562141 294.7094236071690148 7104.4190782993618996 294.7094236071690148 -3716.9798026977305199 -6834.9143125128748579 7104.4190782993618996 -6834.9143125128748579 -12531.6316223241483385" pbc="T T T" energy=-961.9574808970193089
Hf    3.002855320000000105551407614    2.816144829999999821268374944    4.066676220000000618881585979   -0.118582736166762209295555408   -0.693338754451165772962895062    1.293456581787851833453828476
Hf    2.088944580000000605934928899    2.833691850000000123088739201    9.430208600000000274121703114   -0.363086070998288157340994076   -0.602126203244748081644388549   -0.827402813192878228143456454
Hf    3.093468189999999395922714029    7.951715519999999592926087644    4.133715310000001252888068848   -0.753642560397482674794389368    0.766253781348492424285723246    0.413715628756212261407654296
Hf    2.134042690000000241923316935    8.017186640000000252825884672    9.443042000000000157911017595   -0.575408921903863057600858610   -0.116416814452482225705765018    0.101693814682273120375555209
Hf    8.170782940000000493796505907    2.746381889999999881268877289    4.154404509999999994818153937   -0.453370622806423595463343190    0.903359374522246572070116599    0.602082932165837969584742950
Hf    7.268080600000000224270024773    2.813115540000000081022335507    9.469311100000000536169864063    0.477791026581790623239953675   -0.287844055577192836636868378   -1.844902073273395837205157477
Hf    8.110676619999999559240677627    7.994529039999999753263182356    4.206693010000001287096438318    0.646169087572267208940957062    0.612181780175058865012260867   -1.013544822792456834292806889
Hf    7.284573929999998753714862687    8.068309069999999749711605546    9.376674839999999733208824182   -0.619803453067665266473795782   -0.616582019535630632134370899    0.753982303650068574896181417
Hf    0.767390010000000288847843422    0.175845459999999981226537216    3.737108110000000316119894705    0.369674288389980620905816977   -0.105285934269354175540911456   -0.110787012468437154333322781
Hf   -0.036595629999999657044895685    0.180021839999999988535250850    8.947254360000000517061380378   -0.422781009134064578169898141   -0.243781220633370376837945059   -0.044416051387037462638840424
Hf    0.806696559999999673884474305    5.492649489999999801170815772    3.700983060000000435252331954   -0.967294580375531731775140543   -1.108830830923563937062681362    0.070931980093476398874230426
Hf   -0.124227239999999738984115538    5.432658420000000099037151813    8.957590610000000452828317066    0.030076911115532345419865123    0.809288686111195754158131876   -0.598149972208171121224040689
Hf    5.935429740000000009558789316    0.133662940000000007856328921    3.676190330000001171839585368    0.130468348137180334411766580    0.429900866301290651705357959   -0.105850770887900041961060538
Hf    4.997817549999998831822267675    0.301864880000000002091553597    8.979890069999999724359440734    0.845327490788247093433938062   -0.480610820406989436293088147    0.013755855224625856969566939
Hf    5.950728380000000150573669089    5.410889820000000405286755267    3.663423299999999827036845090    0.213951205198074534408192449   -0.714514838089958859157491133    0.691217286992848900517572019
Hf    4.969502930000000873178578331    5.344786449999999078386281326    9.033815719999999771516741021    1.173662448101900679375830805    1.729203423319510157796230487   -0.958269267288150095041032728
Hf    1.209567059999999916186652626    2.375467689999999798544649821    1.073911000000000059984017753    0.154236789398632279102230314   -0.160328207026899871578962120   -0.062472093461183347828935553
Hf    0.276819320000000423931396654    2.355895700000000037022118704    6.324399750000000430816271546    1.187131095818336978808815729    0.788057883297313632731118105   -0.266144128633195808930622661
Hf    1.263391219999999925960310065    7.619893969999999683295754949    1.072773680000000284806560558   -1.045348208257691036138226082   -0.611291212009956508310892787    0.564978515990320451223283271
Hf    0.415011410000000191544700101    7.564390780000000091831680038    6.274902310000001648404577281   -1.258383768765759747054744366    0.460819641107527377954511394    0.909900429789567977145736677
Hf    6.305011989999999677536379750    2.382452039999999993113988239    1.077908260000000284506427306    1.098598875599875235309355048   -1.164692883695847003266976571    0.714789045477560724961563210
Hf    5.473821400000000281238499156    2.446110369999999978318783178    6.299388100000001600164978299    0.637907973332307753899783620   -0.896461958413155568514696370    0.007261896134160880644792257
Hf    6.374538519999999763854248158    7.584793679999998872176547593    1.079138930000000051734332374    0.367867925399601836122798204    0.866811500101130283368888740   -0.502395061178263713230762733
Hf    5.490844929999999735059645900    7.526486669999999712388216722    6.430144850000001355283529847   -0.110969139107134712185498415   -0.307002113668432941029351468   -0.607009142298562953676821508
Hf    3.473554829999999871148474995    4.974917200000000150339474203    1.516604740000000006716618373   -0.508185229507397306925042813    1.285890054267328608261777845   -0.353021495148739039571239573
Hf    2.549212330000000470420218335    4.954587229999999564711288258    6.799204180000002040173967544   -0.004540370279347045665008231   -0.146899304276882525233105525   -0.215642473950412000283094471
Hf    3.421988010000000191013214135   10.188572100000000020258994482    1.561000060000000244642137659    0.088807066356911712468047426   -1.132313336238550682821824012   -0.519790349341622270884499812
Hf    2.582532220000000044990429160   10.170791499999999984993337421    6.823941350000000127806742967   -0.097403015153311733875796108    0.255978561510942892454067987   -0.641393328191732114973433454
Hf    8.546628099999997729696588067    4.987044649999999634815139871    1.594461120000000065033418650    1.006796499933470201426644053    0.442594607578773557854390219   -0.545225818135619100246458402
Hf    7.657694300000001064177013177    4.982375140000000257600731857    6.836772019999999727701833763    0.765253125291529334717210986   -0.129705109647189731347793895   -0.634185056613474684716891261
Hf    8.663609489999995361131368554   10.256923929999999245410435833    1.532940500000000483282747155   -1.568649861111587551221191461   -1.290069027305417614925886483   -0.567012247761644161414551490
Hf    7.743916429999996964284036949   10.191675890000000848090166983    6.812091130000001548694399389   -0.192682285626545768408846016   -0.329027100506983583017017736   -1.127301554223921753461468143
O    2.393312449999999813599060872    1.275167759999999983477891874    2.637556679999999875718685871   -0.510760033403841240406961788    0.711007555279277725368558549    1.315978542165559206367220213
O    1.526770110000000180150436790    1.251925710000000080412974057    8.060788150000000484851625515   -0.265456302985519254633572928    0.415547110766815719351541247   -0.270172047198991294170156152
O    2.393249659999999501280854020    6.499490379999999234428287309    2.767361030000000887696387508    0.790168844775077428010945368   -0.394985597672334765029233949   -0.688759397196615053005075424
O    1.514711549999999018467633505    6.449178909999999653734903404    8.047833260000002653100636962   -0.172808969231637105101739849    0.372638814315442601365901965   -0.676059989890065105022642911
O    7.430709989999996878395904787    1.336537520000000034414711081    2.708835810000000510200379722    0.639122837063491155973338209   -0.177943392414080747698790219    0.144711964047396057786443180
O    6.641746099999998875773599138    1.253061470000000010571739040    7.933359030000000089444256446   -0.213531553056113432287332898    1.047750941747487507527125672    1.164274217273187916887877691
O    7.472383940000000279724190477    6.564404889999999603844571539    2.753227240000000186626039067    0.255084331587468349233915887   -0.694678601514245208647935215   -0.195100054307578429924063812
O    6.646446199999999748797563370    6.470686190000000337363417202    8.066391780000001787698238331   -0.500562752399661858859758468    0.363999150255844838852681278   -0.621213374456135003498502556
O    1.461927579999999782245367896    3.991706129999999852486780583    5.150495150000000244006059802   -0.110490778976581771608778126    0.010582864269699728682061490   -0.711274836684869460334823543
O    0.656281340000000046330796977    4.048530030000000223822098633   10.374892579999999142614797165    0.212154131423832603697832155   -0.925120253522029090120781802    0.693090729680124972844623699
O    1.428803640000000152454617819    9.192564129999999167353053053    5.179449459999999838544226805    0.445495252896350890647880760   -0.466292919539729788791504461    0.206075455754005681940910222
O    2.302326349999999965945107760    9.094205340000000248323885899    0.005989530000000000721505078    0.122963402257948106743867811    1.497985218824169795226453061   -1.273969300878681876199038925
O    6.583885640000000094573806564    3.949569119999999600167939207    5.150583990000001222142600454   -0.140134426648158672001898140   -0.006539312273485031745678953   -0.262476207235025627007019011
O    5.676093130000000819279648567    3.858323210000000003105924407   10.293245590000001499220161350   -0.722649230727811953123307376    0.811544329464095159920589140    1.831297780850457579404633179
O    6.614933860000000720447133062    9.118981420000000781556082075    5.108196590000000369968802261   -1.006035770006418639255230119    0.190440065746825648584916735    0.486416725841918473616232177
O    5.564826299999998227008290996    9.237808360000000718059709470   10.343017110000001679281922407    0.934136464072746086628740159   -0.936740498816196032194625332    0.379016562243284838018553273
O    1.883085660000000327585212290    3.848036510000000021136656869    2.455366699999999902104264038   -0.343965329016821308449891603   -0.318992947882209776366835285    0.240278673140741583225121758
O    1.015470799999999895746327638    3.745746749999999902769332039    7.780497289999999566134647466   -0.052542186309594285376078915    0.504317735198463124035583860   -0.130719998332992026757182202
O    1.778720359999999889311084189    8.974566389999999671545083402    2.640795269999999916876731731    0.356616058583138828552705490    0.192428631186294607502418330   -1.053848815872338251509177098
O    1.015718640000000227985310630    9.007402839999999244469108817    7.768490080000000297388851322    0.026878664679158614791987247   -0.175872712341350684317475839    0.224031454368599558524266513
O    7.032152670000000327377165377    3.794587060000000011683596313    2.571992180000000516315594723   -0.442368551400116105654092280    0.219168625943910733155917114   -1.226355297227294638418015893
O    6.126764190000000276370428764    3.853428969999999953444103085    7.777985450000000966497282207   -0.037608174439312004599944572   -0.517626195961536472722741564    0.080839764638645242311731920
O    7.115070149999998427858827199    9.019942470000000156460373546    2.469595309999999876993115322   -0.846317492841620500065857868    0.178436484718858423548226710    0.290145423077893982455321975
O    6.221716999999999941906025924    9.015378950000000557452040084    7.775828100000000908664787858   -0.931092609970312623524080209   -0.183228133896349620890475762   -0.422643275552650909965279880
O    2.843276969999999792548805999    1.287441400000000069070438258    0.168624379999999990387138382   -0.320801626353968027949292718    0.569136698643480598569510676   -0.940978464527167268727225746
O    1.954790189999998872849573672    1.319574839999999804618369126    5.333490530000000617860678176    0.097766451323625103153602822   -0.538620474555439487929220377    0.295625351767769661837093054
O    2.840092160000000642838813292    6.569927429999999013432443462    0.141427229999999987120062883   -0.624235398507072769547221469   -0.983797455232774287203767472   -0.042055950676355258188721109
O    1.958725819999999728793227405    6.485670350000000361490037903    5.335467470000001100061126635    0.008842511656795698504751613   -0.014366017618930027044399367    0.443518632587807881684227596
O    7.934387159999999106219092937    1.307328419999999935541268314    0.079192890000000001893276647   -0.024086521030372565199684232    0.494362080459284147782028640    0.561931548000675351595134543
O    7.160569159999999655497049389    1.271896899999999996921928869    5.455494930000000408654159401   -0.669441641572084855660307312    0.353774589241368231373741082   -1.454054859880919758907680261
O    7.925369289999998123619207036    6.532069669999999383946942544    0.086370780000000021980888221   -0.033092645402786724506682958   -0.847939773329868251572349891    0.697971517962600485063262568
O    6.993963539999999312612999347    6.444847819999999671836121706    5.359016290000000459770035377    0.612835997086572104031176877    0.170636995353104836681268353    0.533243316078548135195092073
O    3.785008040000000129055024445    3.534895039999999877267100601    5.972431069999999841968474357    0.086984793967800524971956122   -0.525905687763561946468371389   -0.389139102723673802053383497
O    4.580228999999997441250343400    8.497134620000000637674020254    0.946397770000000138068685374   -0.128223755071491307688802408    0.692603947631957539421421188   -0.690850892689945705882337279
O    3.809562100000000395283450416    8.613046779999999458254933415    6.052173449999999732540345576   -0.361132857601204504405245643    0.448027780455347302002166998    0.309437794168646806980405017
O    9.783499530000000277141225524    3.519864749999999542495743299    0.804647120000000048989363677    0.381555966177610561551603041   -0.420913008727105519835021141   -0.150021660412702373399440603
O    8.847089979999999798110366100    3.379066700000000089687546279    6.104761220000002097663127643   -0.037158166693198824148680615    0.685086231881103846497182985   -0.098905190592337405286471608
O    9.814879189999993869264471869    8.759107000000000198269844986    0.785691780000000172812235633    0.071940703028510633032510668   -0.611882138243344364525455603   -0.799944909586436714299395589
O    8.948551789999999783731254865    8.755578350000000398267729906    5.906427850000000034924596548    0.691650471517143983213316005   -0.451859648171879291211894270    1.033272928183778471833420554
O    0.051721800000000150987489178    0.886271180000000047272123993    1.778026680000000414594296672    0.616421273061602770226841130    0.578685291692721648360020481    0.307524067490488162146533568
O   -0.755602619999999669531121071    0.819079729999999894829443292    6.953127010000000218781224248   -0.113847142045865989956610065   -0.666930355960805520965095639    1.166136390260730459900173628
O    0.094474760000000101989314771    6.016699499999999645183379471    1.788464050000000415963086198   -0.582477565330159041678825815    0.488760170942140859118296703    0.030672175665095557928196968
O   -0.847014240000000029340299079    6.101351619999999975618720782    7.031458960000000146806087287    0.070706838949436301433593144   -0.173870756632962086829508053   -0.053350354350187076390987784
O    5.216662620000001027165126288    0.756701390000000029267823720    1.713185350000000495285235047    0.163019149157683396200724246    0.793493835473868092122984308    0.097187112360928029630713354
O    4.243589000000000055479176808    0.945819309999999968674444517    7.160872470000001044354576152    0.239882302014322590366646182    0.462814577398164450627859878   -1.201395713498695227983148470
O    5.331005719999998504476934613    5.922302629999999901144747128    1.658352660000000033946321309   -0.724536298366847852925332063   -0.733324182983708938721179038    0.050017003722194752768359649
O    4.339279519999999834567461221    5.918599839999999723261225881    7.068546180000000234144863498    0.252299413337970346304928171    1.220987915751070573833203525   -0.222711818572161157625544092
O   -0.309669269999999940967683187    1.821727410000000046963464229    4.374742070000000815355178929   -0.440825296574363423296460951   -0.282280464772798167505385436   -0.438790531344913914413297107
O   -1.299382019999999915427224551    1.619027610000000061418745645    9.642067779999999643791852577   -0.066735243346131345454352868    0.621974979372431624469186318    0.550441321312038711610625796
O   -0.398077879999999828530832247    6.941633279999999572851265839    4.452985919999999708807081333    0.137812523452752966335310703   -0.197319952448526458876898459   -0.480785157796734363699897585
O   -1.349849199999998861088101876    6.883780739999999731537627667    9.610268010000000415971044276    0.576179229304041085057974669    0.437252659364591123036802855    1.009714635873032673174520824
O    4.842723709999997794284354313    1.709508690000000052933160077    4.322595009999999682293037040   -0.739881458130004610040941770    0.419699422726754090007261766    0.690626124436527377703498587
O    3.791798209999999613728505210    1.787184670000000030753994906    9.755888549999999881379153521   -0.107028101540600023566796040    0.142888703076056999830001359    0.009800330129451972904774948
O    4.775420479999999301412572095    6.889881400000000155614543473    4.371534239999999904568994680   -0.117157081788235833963440768   -0.078811106749651249625543414    0.186105648431506981443916970
O    3.760282240000000442137206846    6.961378469999999651918187737    9.621826640000000097074916994    1.645933394746313727097231094   -0.993859117022106608452247656    0.120725200521911338324976271
O    4.240936060000000118463958643    4.226740730000000390020886698    3.264668309999999795678604642    0.573662729627477552263314919    0.059401704932735721609304846    0.246903941179521357884851795
O    3.358544820000000097337533589    4.261756540000000370582711184    8.694980949999999708666109655   -1.283992599248392041388910911   -0.510035675661756782162115087    0.349168228819675463547866912
O    4.174445999999999656893123756    9.470551280000000460290721094    3.317988179999999953651013129    0.812159096927077217564772127    0.242616111528670130859097753    1.558274694925070313900050678
O    3.288495399999999513340753765    9.601201030000000358199940820    8.734065920000000815548446553   -0.283477661815009662760189713   -0.502235724796725513385808881    0.061615620128470327543368512
O    9.235478210000000132140485221    4.408428439999999781662154419    3.444413760000000213068460653    0.778551816525863471518675851   -0.208331346219049612367157920    0.295122178103450483188652242
O    8.486793799999999166061570577    4.330005410000000054537849792    8.668013979999999563119672530   -0.194371347681341899438223209   -0.796920350422777756804748606    0.447559275760343988626033251
O    9.314260319999998927187334630    9.543487100000000111776898848    3.366233750000000135571553983    0.635777523888959694708944426    0.171844281016935551686941608    0.833265909060753484638439659
O    8.563233370000000732602529752    9.393276789999999820679477125    8.532273970000000318236743624    0.778636072065097994965299222    0.554109883221282073506586130    0.960708223164674190996947800
