95
Lattice="0.0 10.284638 0.0 10.390295 0.0 0.0 0.0 -1.790094 -10.500585" Properties=species:S:1:pos:R:3:forces:R:3 stress="-0.0001051475772476832 0.00023857290453354745 -0.002171658133584969 0.00023857290453354745 -0.0035061196668786146 0.0037785477464882503 -0.002171658133584969 0.0037785477464882503 0.0020020981759166613" pbc="T T T" energy=-961.68653054 free_energy=-961.68653054 config_type=crystal 
Hf       2.81614483       3.00285532      -4.06667622      -0.39865677       0.13880133      -0.89197438 
Hf       2.83369185       2.08894458      -9.43020860      -0.43363251       0.28892265       0.05974316 
Hf       7.95171552       3.09346819      -4.13371531       0.86406240      -0.76665131      -0.43981291 
Hf       8.01718664       2.13404269      -9.44304200      -0.15003884      -0.35172046      -0.14679738 
Hf       2.74638189       8.17078294      -4.15440451       0.80794614      -0.56477186      -0.49078083 
Hf       2.81311554       7.26808060      -9.46931110      -0.33514226       0.22099257       1.60410553 
Hf       7.99452904       8.11067662      -4.20669301       0.68238983       0.69860228       0.86935463 
Hf       8.06830907       7.28457393      -9.37667484      -0.60924216      -0.58020467      -0.71420489 
Hf       0.17584546       0.76739001      -3.73710811      -0.07156658       0.31616672      -0.03127099 
Hf       0.18002184      -0.03659563      -8.94725436      -0.16914498      -0.28985131      -0.01694691 
Hf       5.49264949       0.80669656      -3.70098306      -1.13116936      -0.87985355      -0.08019199 
Hf       5.43265842      -0.12422724      -8.95759061       0.53112448       0.16507331       0.31098849 
Hf       0.13366294       5.93542974      -3.67619033       0.40951657       0.16777907       0.31681354 
Hf       0.30186488       4.99781755      -8.97989007      -0.06977772       0.35219818      -0.31055049 
Hf       5.41088982       5.95072838      -3.66342330      -0.86635539       0.05877612      -0.35424193 
Hf       5.34478645       4.96950293      -9.03381572       1.38963554       0.75533691       0.52020497 
Hf       2.37546769       1.20956706      -1.07391100      -0.15983843       0.67363223       0.14031686 
Hf       2.35589570       0.27681932      -6.32439975       0.86040520       1.40597514      -0.02231583 
Hf       7.61989397       1.26339122      -1.07277368      -0.75934876      -0.88966445      -0.38622456 
Hf       7.56439078       0.41501141      -6.27490231       0.56106172      -1.39315679      -0.83920960 
Hf       2.38245204       6.30501199      -1.07790826      -0.28198526       0.11151871      -0.42980119 
Hf       2.44611037       5.47382140      -6.29938810      -0.91725533       0.41051462      -0.01798308 
Hf       7.58479368       6.37453852      -1.07913893       0.74233562       0.24551630       0.35563896 
Hf       7.52648667       5.49084493      -6.43014485      -0.24515380       0.04738157       0.46829029 
Hf       4.97491720       3.47355483      -1.51660474       0.11566314       0.57048751       1.03244127 
Hf       4.95458723       2.54921233      -6.79920418      -0.33974644      -0.02574817       0.03371564 
Hf      10.18857210       3.42198801      -1.56100006      -0.80979006       0.41950770       0.76144395 
Hf      10.17079150       2.58253222      -6.82394135       0.41589967       0.00373120       0.41954107 
Hf       4.98704465       8.54662810      -1.59446112       0.52745394       0.75990743       0.54968858 
Hf       4.98237514       7.65769430      -6.83677202      -0.13405863       0.90874914       0.57589770 
Hf      10.25692393       8.66360949      -1.53294050      -1.33145810      -1.80751560       0.58623298 
Hf      10.19167589       7.74391643      -6.81209113      -0.50668008      -0.12550221       1.12979591 
O       1.27516776       2.39331245      -2.63755668       0.60667613      -0.61626891      -1.34586092 
O       1.25192571       1.52677011      -8.06078815       0.05432799      -0.40151162       0.40431888 
O       6.49949038       2.39324966      -2.76736103       0.04472812       0.24486235       0.37103183 
O       6.44917891       1.51471155      -8.04783326       0.34266739      -0.09316173       0.73521341 
O       1.33653752       7.43070999      -2.70883581      -0.27281511       0.64354455      -0.44418377 
O       1.25306147       6.64174610      -7.93335903       1.07714016      -0.19946989      -1.05088719 
O       6.56440489       7.47238394      -2.75322724      -0.74384000       0.23053549       0.16257696 
O       6.47068619       6.64644620      -8.06639178       0.31295960      -0.47249646       0.67730474 
O       3.99170613       1.46192758      -5.15049515       0.07467855      -0.12262143       0.75097099 
O       4.04853003       0.65628134     -10.37489258      -0.48663010      -0.57852133      -0.34832490 
O       9.19256413       1.42880364      -5.17944946      -0.46569848       0.46494673      -0.12220486 
O       9.09420534       2.30232635      -0.00598953       1.44028881       0.08740495       1.16972624 
O       3.94956912       6.58388564      -5.15058399      -0.05196612      -0.15672154       0.15757893 
O       3.85832321       5.67609313     -10.29324559       0.70862171      -0.31158308      -1.61461460 
O       9.11898142       6.61493386      -5.10819659       0.15208748      -0.96772424      -0.39668920 
O       9.23780836       5.56482630     -10.34301711      -0.93891790       0.98209336      -0.41061599 
O       3.84803651       1.88308566      -2.45536670      -0.36230419      -0.24261997      -0.38233014 
O       3.74574675       1.01547080      -7.78049729       0.68157772      -0.21522638       0.35345579 
O       8.97456639       1.77872036      -2.64079527       0.27030002       0.38774887       0.86329693 
O       9.00740284       1.01571864      -7.76849008      -0.15484201       0.03203710      -0.21575414 
O       3.79458706       7.03215267      -2.57199218       0.36823518      -0.26637470       1.06055621 
O       3.85342897       6.12676419      -7.77798545      -0.52926914       0.01521259       0.01777799 
O       9.01994247       7.11507015      -2.46959531       0.20526962      -0.79802908      -0.32864640 
O       9.01537895       6.22171700      -7.77582810      -0.26503561      -0.89217476       0.45586655 
O       1.28744140       2.84327697      -0.16862438       0.11512864      -0.56009739       0.92069109 
O       1.31957484       1.95479019      -5.33349053      -0.46472694       0.12630294      -0.15440114 
O       6.56992743       2.84009216      -0.14142723      -0.91165906      -0.56041972      -0.05412549 
O       6.48567035       1.95872582      -5.33546747      -0.07207067       0.06911973      -0.39283397 
O       1.30732842       7.93438716      -0.07919289       0.31335128       0.26379383      -0.23589863 
O       1.27189690       7.16056916      -5.45549493       0.35197186      -0.64371352       1.41122027 
O       6.53206967       7.92536929      -0.08637078      -0.89094244       0.00616873      -0.64196668 
O       6.44484782       6.99396354      -5.35901629       0.13961603       0.53310608      -0.45210353 
O       3.53489504       3.78500804      -5.97243107      -0.58053328       0.20062599       0.39911706 
O       8.49713462       4.58022900      -0.94639777       0.80067096      -0.24311089       0.72253090 
O       8.61304678       3.80956210      -6.05217345       0.43425092      -0.37128594      -0.28791067 
O       3.51986475       9.78349953      -0.80464712      -0.50426537       0.29775475       0.15084692 
O       3.37906670       8.84708998      -6.10476122       0.64724029      -0.07999034       0.12046737 
O       8.75910700       9.81487919      -0.78569178      -0.53937382       0.06824051       0.77619075 
O       8.75557835       8.94855179      -5.90642785      -0.47890047       0.63774750      -0.93622969 
O       0.88627118       0.05172180      -1.77802668       0.70350238       0.65039023      -0.36765450 
O       0.81907973      -0.75560262      -6.95312701      -0.58021386      -0.19215348      -1.13161939 
O       6.01669950       0.09447476      -1.78846405       0.45771007      -0.43525766       0.03027677 
O       6.10135162      -0.84701424      -7.03145896      -0.19620419       0.07374299       0.04106307 
O       0.75670139       5.21666262      -1.71318535       0.41959890      -0.04079038      -0.14487276 
O       0.94581931       4.24358900      -7.16087247       0.39511025       0.15632219       1.26977155 
O       5.92230263       5.33100572      -1.65835266      -0.41988682      -0.72472793      -0.48132139 
O       5.91859984       4.33927952      -7.06854618       1.19601391       0.32855926       0.29408522 
O       1.82172741      -0.30966927      -4.37474207      -0.29141612      -0.43695176       0.46108026 
O       1.61902761      -1.29938202      -9.64206778       0.76194331      -0.08359997      -0.55189464 
O       6.94163328      -0.39807788      -4.45298592      -0.36016029       0.24756871       0.45201526 
O       6.88378074      -1.34984920      -9.61026801       0.46622752       0.48672822      -1.05185884 
O       1.70950869       4.84272371      -4.32259501       0.38878945      -0.79784485      -0.73996122 
O       1.78718467       3.79179821      -9.75588855      -0.23014382       0.28155239       0.19500306 
O       6.88988140       4.77542048      -4.37153424       0.02100676      -0.17817581      -0.11448426 
O       6.96137847       3.76028224      -9.62182664      -0.84133141       1.54487834      -0.08142863 
O       4.22674073       4.24093606      -3.26466831       0.38342632       0.44981619      -0.68197180 
O       4.26175654       3.35854482      -8.69498095      -0.33862817      -1.02760686       0.21980004 
O       9.47055128       4.17444600      -3.31798818       0.18776805       0.73863191      -1.50521051 
O       9.60120103       3.28849540      -8.73406592      -0.61661370      -0.28313248      -0.01580222 
O       4.40842844       9.23547821      -3.44441376      -0.14272552       0.94258300      -0.42588950 
O       4.33000541       8.48679380      -8.66801398      -0.78907214      -0.38974395      -0.30588723 
O       9.54348710       9.31426032      -3.36623375       0.22829343       0.58479420      -0.77528202 
O       9.39327679       8.56323337      -8.53227397       0.56416148       0.67885946      -0.94612325 
