ITEM: TIMESTEP
0
ITEM: NUMBER OF ATOMS
2
ITEM: BOX BOUNDS xy xz yz pp pp pp
0.0000000000000000e+00 2.8717175918429416e+00 2.1888396216913725e-01
0.0000000000000000e+00 2.6528336296738044e+00 0.0000000000000000e+00
0.0000000000000000e+00 3.8250280122051756e+00 0.0000000000000000e+00
ITEM: ATOMS id type x y z fx fy fz
   1 1    1.1588122000000003    1.4567213500000002    1.9417219200000002    2.0852411650388114   -1.8425312482398368   -0.7392888867647917
   2 2    0.2362375221691373    2.5910544396738047    3.8115906922051757   -2.0852411650388110    1.8425312482398370    0.7392888867647919
