TiAl config # 53

2 atoms

2 atom types

0.0000000000000000e+00  2.6528336296738044 xlo xhi
0.0000000000000000e+00  2.6528336296738044 ylo yhi
0.0000000000000000e+00  3.8250280122051756 zlo zhi
0.21888396216913725 0.0 0.0 xy xz yz

Masses

1 47.867 # Ti
2 26.981539  # Al

Atoms

1 1       1.15881220       1.45672135       1.94172192
2 2       0.01735356      -0.06177919      -0.01343732
