LAMMPS (27 Jun 2024)
OMP_NUM_THREADS environment is not set. Defaulting to 1 thread. (src/comm.cpp:98)
  using 1 OpenMP thread(s) per MPI task
# user-set variables
variable TEMP equal 600

# necessary preliminaries
units metal
atom_style atomic
dimension 3
boundary p p p

read_data orthog_Hf_7_4_4_Hfint_alt_DATA
Reading data file ...
  orthogonal box = (0 0 0) to (22.422218 22.19224 20.321894)
  5 by 2 by 2 MPI processor grid
  reading atoms ...
  448 atoms
  read_data CPU = 0.005 seconds

# neighbor parameters
neighbor 2.0 bin
neigh_modify every 1 delay 0 check no

# interatomic potential parameters
pair_style     pod
pair_coeff * * Hf_param.pod Hf_coefficients.pod Hf
**************** Begin of POD Potentials ****************
species: Hf 
periodic boundary conditions: 1 1 1
number of environment clusters: 8
number of principal compoments: 2
inner cut-off radius: 1
outer cut-off radius: 5
cut-off function type: 1
gaussian_exponents: 
polynomial_degrees: 
bessel polynomial degree: 4
inverse polynomial degree: 10
one-body potential: 1
two-body radial basis functions: 8
three-body radial basis functions: 8
three-body angular degree: 6
four-body radial basis functions: 7
four-body angular degree: 5
five-body radial basis functions: 0
five-body angular degree: 0
six-body radial basis functions: 0
six-body angular degree: 0
seven-body radial basis functions: 0
seven-body angular degree: 0
number of local descriptors per element for one-body potential: 1
number of local descriptors per element for two-body potential: 8
number of local descriptors per element for three-body potential: 56
number of local descriptors per element for four-body potential: 112
number of local descriptors per element for five-body potential: 0
number of local descriptors per element for six-body potential: 0
number of local descriptors per element for seven-body potential: 0
number of local descriptors per element for all potentials: 177
number of global descriptors: 1409
**************** End of POD Potentials ****************

**************** Begin of Model Coefficients ****************
total number of coefficients for POD potential: 1409
total number of elements for PCA projection matrix: 352
total number of elements for PCA centroids: 16
**************** End of Model Coefficients ****************


thermo 100
thermo_style custom step temp etotal pe ke press vol

# dump output
dump 1 all custom 100 ${TEMP}K_nvt.lammpstrj id type x y z
dump 1 all custom 100 600K_nvt.lammpstrj id type x y z
dump_modify 1 sort id

velocity all create ${TEMP} 9928459 rot yes mom yes dist gaussian
velocity all create 600 9928459 rot yes mom yes dist gaussian
fix 1 all nvt temp ${TEMP} ${TEMP} 0.1
fix 1 all nvt temp 600 ${TEMP} 0.1
fix 1 all nvt temp 600 600 0.1

# run
run 100000

CITE-CITE-CITE-CITE-CITE-CITE-CITE-CITE-CITE-CITE-CITE-CITE-CITE

Your simulation uses code contributions which should be cited:

- Type Label Framework: https://doi.org/10.1021/acs.jpcb.3c08419

@Article{Gissinger24,
 author = {Jacob R. Gissinger, Ilia Nikiforov, Yaser Afshar, Brendon Waters, Moon-ki Choi, Daniel S. Karls, Alexander Stukowski, Wonpil Im, Hendrik Heinz, Axel Kohlmeyer, and Ellad B. Tadmor},
 title = {Type Label Framework for Bonded Force Fields in LAMMPS},
 journal = {J. Phys. Chem. B},
 year =    2024,
 volume =  128,
 number =  13,
 pages =   {3282–-3297}
}

CITE-CITE-CITE-CITE-CITE-CITE-CITE-CITE-CITE-CITE-CITE-CITE-CITE

Neighbor list info ...
  update: every = 1 steps, delay = 0 steps, check = no
  max neighbors/atom: 2000, page size: 100000
  master list distance cutoff = 7
  ghost atom cutoff = 7
  binsize = 3.5, bins = 7 7 6
  1 neighbor lists, perpetual/occasional/extra = 1 0 0
  (1) pair pod, perpetual
      attributes: full, newton on
      pair build: full/bin/atomonly
      stencil: full/bin/3d
      bin: standard
Per MPI rank memory allocation (min/avg/max) = 2.586 | 2.586 | 2.586 Mbytes
   Step          Temp          TotEng         PotEng         KinEng         Press          Volume    
         0   600           -3214.4091     -3249.0767      34.667571      29532.735      10112.159    
       100   414.6805      -3216.587      -3240.5469      23.959942      14128.179      10112.159    
       200   414.78088     -3211.3651     -3235.3309      23.965742      15820.836      10112.159    
       300   532.26836     -3205.4151     -3236.1692      30.754085      16093.331      10112.159    
       400   665.98045     -3201.1906     -3239.6705      38.479874      15932.086      10112.159    
       500   646.82437     -3203.2889     -3240.662       37.37305       15432.975      10112.159    
       600   589.35584     -3205.9971     -3240.0496      34.052559      15265.46       10112.159    
       700   536.03345     -3207.1677     -3238.1393      30.971629      16149.192      10112.159    
       800   608.91885     -3205.012      -3240.1949      35.182895      16128.336      10112.159    
       900   581.85812     -3203.6933     -3237.3126      33.619346      16241.658      10112.159    
      1000   657.7626      -3202.0281     -3240.0331      38.005053      15443.329      10112.159    
      1100   576.15031     -3203.1458     -3236.4353      33.289553      17072.634      10112.159    
      1200   605.70987     -3204.2783     -3239.2758      34.997483      16178.159      10112.159    
      1300   578.19351     -3206.637      -3240.0447      33.407608      15358.103      10112.159    
      1400   606.89532     -3206.6815     -3241.7475      35.065978      15104.153      10112.159    
      1500   579.4456      -3204.7483     -3238.2282      33.479952      15983.934      10112.159    
      1600   647.16142     -3201.5154     -3238.908       37.392524      16641.535      10112.159    
      1700   576.09944     -3203.3496     -3236.6362      33.286613      16017.414      10112.159    
      1800   625.09982     -3203.8717     -3239.9896      36.11782       15334.468      10112.159    
      1900   556.83792     -3206.4413     -3238.615       32.173697      16222.624      10112.159    
      2000   583.36361     -3206.6414     -3240.3477      33.706332      15511.654      10112.159    
      2100   577.38907     -3205.2361     -3238.5973      33.361128      16233.599      10112.159    
      2200   639.7485      -3204.026      -3240.9902      36.964211      15371.698      10112.159    
      2300   584.70525     -3204.3473     -3238.1312      33.783851      15110.217      10112.159    
      2400   628.62936     -3202.751      -3239.0728      36.321755      16385.628      10112.159    
      2500   597.62677     -3203.2314     -3237.7618      34.530447      16204.85       10112.159    
      2600   578.44774     -3206.1361     -3239.5584      33.422297      15399.138      10112.159    
      2700   580.5577      -3207.8714     -3241.4156      33.544209      15014.021      10112.159    
      2800   584.78015     -3207.4098     -3241.198       33.788179      15192.378      10112.159    
      2900   583.31459     -3205.9247     -3239.6282      33.7035        15939.727      10112.159    
      3000   641.0452      -3203.9836     -3241.0228      37.039133      15717.616      10112.159    
      3100   584.57661     -3203.891      -3237.6674      33.776418      16063.317      10112.159    
      3200   653.68121     -3202.2491     -3240.0183      37.769233      16231.186      10112.159    
      3300   581.75166     -3203.9892     -3237.6024      33.613195      15958.625      10112.159    
      3400   592.39815     -3206.5516     -3240.7799      34.228342      14813.573      10112.159    
      3500   573.00958     -3207.3082     -3240.4163      33.108083      15091.833      10112.159    
      3600   600.03987     -3205.1013     -3239.7711      34.669875      15860.035      10112.159    
      3700   606.73731     -3201.4157     -3236.4726      35.056848      15901.313      10112.159    
      3800   636.19852     -3201.4071     -3238.1662      36.759095      16317.617      10112.159    
      3900   578.42633     -3204.1626     -3237.5837      33.42106       16282.795      10112.159    
      4000   621.4486      -3204.8554     -3240.7623      35.906856      15928.945      10112.159    
      4100   594.17798     -3205.695      -3240.0262      34.331179      15791.123      10112.159    
      4200   579.902       -3206.4108     -3239.9171      33.506323      15144.141      10112.159    
      4300   595.61158     -3205.7426     -3240.1566      34.414011      15490.78       10112.159    
      4400   594.69526     -3203.344      -3237.7051      34.361067      16396.257      10112.159    
      4500   629.90886     -3201.9901     -3238.3858      36.395683      16248.895      10112.159    
      4600   595.22492     -3203.4693     -3237.8609      34.39167       16339.005      10112.159    
      4700   566.07158     -3206.802      -3239.5092      32.707211      15201.757      10112.159    
      4800   589.23735     -3207.1792     -3241.2249      34.045713      15256.794      10112.159    
      4900   600.65015     -3206.3968     -3241.1019      34.705136      15352.304      10112.159    
      5000   594.16606     -3205.2529     -3239.5834      34.33049       15069.903      10112.159    
      5100   615.77894     -3203.4004     -3238.9797      35.579267      16655.994      10112.159    
      5200   608.37433     -3203.3881     -3238.5395      35.151434      16302.047      10112.159    
      5300   600.28298     -3203.8381     -3238.522       34.683921      15610.675      10112.159    
      5400   603.76927     -3204.2905     -3239.1759      34.885357      16036.436      10112.159    
      5500   595.45426     -3205.6159     -3240.0209      34.404922      15918.316      10112.159    
      5600   551.863       -3208.6898     -3240.5761      31.886249      14893.011      10112.159    
      5700   575.47933     -3208.4497     -3241.7004      33.250784      15144.246      10112.159    
      5800   597.38528     -3205.2315     -3239.748       34.516494      15506.011      10112.159    
      5900   583.77302     -3203.9351     -3237.6651      33.729988      16192.072      10112.159    
      6000   603.52542     -3203.1459     -3238.0171      34.871267      16268.247      10112.159    
      6100   598.2884      -3204.0441     -3238.6128      34.568676      16071.983      10112.159    
      6200   583.20491     -3206.6375     -3240.3347      33.697163      15506.686      10112.159    
      6300   606.70431     -3207.547      -3242.6019      35.054941      14637.666      10112.159    
      6400   570.09219     -3205.3701     -3238.3096      32.939519      15658.317      10112.159    
      6500   616.81416     -3203.2045     -3238.8435      35.639081      16552.316      10112.159    
      6600   609.50214     -3203.8008     -3239.0174      35.216598      16618.766      10112.159    
      6700   596.5262      -3204.4608     -3238.9277      34.466857      16242.022      10112.159    
      6800   575.36391     -3205.6991     -3238.9432      33.244115      16423.25       10112.159    
      6900   621.58816     -3205.2553     -3241.1703      35.91492       15304.248      10112.159    
      7000   615.81793     -3203.5745     -3239.156       35.58152       15609.49       10112.159    
      7100   604.98703     -3201.6188     -3236.5745      34.955718      17544.523      10112.159    
      7200   626.0702      -3199.8223     -3235.9962      36.173889      17401.55       10112.159    
      7300   601.16067     -3201.7259     -3236.4605      34.734633      17384.528      10112.159    
      7400   623.47354     -3204.8987     -3240.9226      36.023855      15818.311      10112.159    
      7500   626.37445     -3205.7969     -3241.9884      36.191468      15314.429      10112.159    
      7600   562.44086     -3206.1604     -3238.6578      32.497431      16238.088      10112.159    
      7700   610.51164     -3203.3458     -3238.6207      35.274926      16638.32       10112.159    
      7800   596.95045     -3202.2359     -3236.7273      34.49137       16909.543      10112.159    
      7900   622.42335     -3202.9234     -3238.8866      35.963176      16133.018      10112.159    
      8000   635.49055     -3204.118      -3240.8361      36.71819       15325.358      10112.159    
      8100   588.6539      -3204.5827     -3238.5947      34.012001      15980.396      10112.159    
      8200   587.14572     -3203.9697     -3237.8946      33.92486       17182.394      10112.159    
      8300   611.44        -3203.8015     -3239.13        35.328566      16591.349      10112.159    
      8400   587.60964     -3207.3002     -3241.2519      33.951664      15143.5        10112.159    
      8500   592.37812     -3207.8188     -3242.046       34.227184      15114.304      10112.159    
      8600   580.20726     -3206.1029     -3239.6269      33.52396       16019.312      10112.159    
      8700   605.54699     -3203.8536     -3238.8416      34.988072      16077.408      10112.159    
      8800   614.29084     -3203.6093     -3239.1026      35.493286      15975.767      10112.159    
      8900   621.64447     -3204.0664     -3239.9846      35.918173      15866.448      10112.159    
      9000   612.11663     -3205.4507     -3240.8184      35.367661      15968.305      10112.159    
      9100   535.67777     -3208.5282     -3239.4793      30.951078      15440.828      10112.159    
      9200   609.59082     -3207.2811     -3242.5029      35.221722      15261.029      10112.159    
      9300   623.61438     -3205.4369     -3241.4689      36.031993      15582.046      10112.159    
      9400   558.46558     -3204.8904     -3237.1581      32.267742      16784.114      10112.159    
      9500   621.3195      -3203.3049     -3239.2043      35.899396      16313.309      10112.159    
      9600   657.61884     -3203.3105     -3241.3073      37.996746      15981.819      10112.159    
      9700   567.06561     -3205.5995     -3238.3641      32.764645      15684.843      10112.159    
      9800   595.95024     -3205.2506     -3239.6841      34.433578      16247.933      10112.159    
      9900   617.68966     -3203.9354     -3239.6251      35.689667      16073.431      10112.159    
     10000   626.95325     -3201.4443     -3237.6692      36.22491       16666.624      10112.159    
     10100   638.58029     -3201.203      -3238.0997      36.896713      16030.756      10112.159    
     10200   610.97385     -3203.7997     -3239.1013      35.301632      15841.015      10112.159    
     10300   589.08071     -3205.4058     -3239.4425      34.036662      15276.261      10112.159    
     10400   595.33027     -3205.3987     -3239.7965      34.397757      16229.367      10112.159    
     10500   600.2416      -3204.6468     -3239.3283      34.68153       16013.832      10112.159    
     10600   588.03251     -3204.1551     -3238.1312      33.976098      16335.878      10112.159    
     10700   618.85789     -3202.1753     -3237.9325      35.757166      17012.839      10112.159    
     10800   664.14183     -3198.9395     -3237.3131      38.37364       17044.847      10112.159    
     10900   601.1102      -3201.5986     -3236.3303      34.731717      16876.843      10112.159    
     11000   609.37733     -3203.9988     -3239.2082      35.209386      16548.615      10112.159    
     11100   595.28669     -3205.4654     -3239.8607      34.395239      16085.907      10112.159    
     11200   601.02692     -3205.2422     -3239.9691      34.726906      16164.64       10112.159    
     11300   608.97327     -3204.0791     -3239.2651      35.18604       16041.048      10112.159    
     11400   593.19692     -3201.7185     -3235.993       34.274494      17075.52       10112.159    
     11500   640.59872     -3199.9018     -3236.9151      37.013336      17408.829      10112.159    
     11600   606.80533     -3203.0479     -3238.1087      35.060778      17089.799      10112.159    
     11700   604.26229     -3204.7087     -3239.6225      34.913843      16204.65       10112.159    
     11800   605.28303     -3205.1699     -3240.1428      34.972821      15984.38       10112.159    
     11900   594.71796     -3205.1829     -3239.5452      34.362378      16034.99       10112.159    
     12000   568.3077      -3204.6085     -3237.4449      32.836412      17231.898      10112.159    
     12100   628.04449     -3202.6035     -3238.8915      36.287961      16639.901      10112.159    
     12200   620.85764     -3203.1761     -3239.0488      35.87271       16676.525      10112.159    
     12300   594.97126     -3205.0805     -3239.4576      34.377014      16163.901      10112.159    
     12400   552.54933     -3207.716      -3239.6419      31.925905      15938.379      10112.159    
     12500   581.22947     -3207.2069     -3240.7899      33.583023      15781.341      10112.159    
     12600   601.4666      -3204.1728     -3238.9251      34.75231       15897.872      10112.159    
     12700   626.06997     -3201.8855     -3238.0594      36.173875      17221.191      10112.159    
     12800   604.24818     -3202.9173     -3237.8304      34.913027      16417.573      10112.159    
     12900   581.92554     -3205.0222     -3238.6454      33.623241      15819.047      10112.159    
     13000   612.94218     -3206.3832     -3241.7986      35.415361      16077.843      10112.159    
     13100   568.5946      -3207.2094     -3240.0624      32.852989      15616.424      10112.159    
     13200   622.97128     -3203.3866     -3239.3814      35.994835      16471.52       10112.159    
     13300   575.48945     -3202.4239     -3235.6752      33.251369      17413.602      10112.159    
     13400   621.59294     -3202.5542     -3238.4694      35.915195      16677.489      10112.159    
     13500   604.29511     -3204.9412     -3239.8569      34.915739      16494.039      10112.159    
     13600   582.08952     -3205.8715     -3239.5042      33.632716      15846.747      10112.159    
     13700   594.03426     -3205.4771     -3239.8         34.322874      16217.511      10112.159    
     13800   580.83068     -3204.8879     -3238.4479      33.559981      16893.65       10112.159    
     13900   629.3342      -3204.1311     -3240.4936      36.36248       16818.156      10112.159    
     14000   561.69369     -3205.9011     -3238.3554      32.45426       16329.308      10112.159    
     14100   582.45363     -3207.7921     -3241.4459      33.653754      15346.884      10112.159    
     14200   552.47296     -3208.8536     -3240.7751      31.921492      15643.787      10112.159    
     14300   626.94739     -3205.8132     -3242.0378      36.224572      15694.089      10112.159    
     14400   584.19296     -3204.6699     -3238.4242      33.754251      16221.984      10112.159    
     14500   629.87152     -3202.8601     -3239.2536      36.393526      16622.276      10112.159    
     14600   571.89949     -3203.133      -3236.1769      33.043943      16913.9        10112.159    
     14700   599.77695     -3204.6554     -3239.3101      34.654683      16583.608      10112.159    
     14800   608.41741     -3207.5606     -3242.7145      35.153923      15148.761      10112.159    
     14900   592.54738     -3207.3516     -3241.5885      34.236964      15784.82       10112.159    
     15000   554.5734      -3205.4315     -3237.4744      32.042854      16346.713      10112.159    
     15100   608.99536     -3203.8227     -3239.0101      35.187316      15914.621      10112.159    
     15200   605.89576     -3204.1995     -3239.2077      35.008224      16147.084      10112.159    
     15300   603.56801     -3204.3298     -3239.2035      34.873728      16424.135      10112.159    
     15400   581.90077     -3204.6527     -3238.2745      33.62181       16471.635      10112.159    
     15500   585.43675     -3206.4899     -3240.316       33.826117      15343.707      10112.159    
     15600   583.61069     -3206.9796     -3240.7002      33.720608      15601.245      10112.159    
     15700   603.79368     -3204.6625     -3239.5493      34.886767      16225.55       10112.159    
     15800   599.52461     -3203.1293     -3237.7694      34.640103      16477.836      10112.159    
     15900   610.05257     -3202.4943     -3237.7427      35.248401      16822.723      10112.159    
     16000   633.93163     -3202.4605     -3239.0886      36.628116      16038.532      10112.159    
     16100   597.81839     -3204.4276     -3238.9691      34.541519      16268.548      10112.159    
     16200   567.41147     -3206.7447     -3239.5294      32.784629      16419.942      10112.159    
     16300   581.11461     -3206.4412     -3240.0176      33.576387      15890.945      10112.159    
     16400   606.54331     -3204.0764     -3239.122       35.045639      15776.119      10112.159    
     16500   580.63337     -3203.1531     -3236.7017      33.548581      16690.979      10112.159    
     16600   641.90512     -3202.2548     -3239.3436      37.088819      16947.822      10112.159    
     16700   569.6667      -3205.5658     -3238.4807      32.914935      16178.826      10112.159    
     16800   569.66907     -3207.6709     -3240.586       32.915071      15761.604      10112.159    
     16900   613.91813     -3205.797      -3241.2687      35.47175       15710.377      10112.159    
     17000   594.29178     -3203.9516     -3238.2894      34.337754      16793.433      10112.159    
     17100   601.17171     -3202.6538     -3237.3891      34.735272      16690.706      10112.159    
     17200   630.2365      -3202.3184     -3238.733       36.414614      16564.356      10112.159    
     17300   597.31924     -3204.7654     -3239.2781      34.512679      15856.954      10112.159    
     17400   594.96848     -3206.9632     -3241.3401      34.376854      15463.445      10112.159    
     17500   548.2696      -3207.1668     -3238.8455      31.678625      15952.384      10112.159    
     17600   604.3386      -3204.5337     -3239.4519      34.918252      16523.076      10112.159    
     17700   611.40927     -3203.9426     -3239.2694      35.32679       16530.362      10112.159    
     17800   606.8873      -3203.7953     -3238.8608      35.065514      15950.868      10112.159    
     17900   602.26261     -3203.6806     -3238.4789      34.798303      16564.615      10112.159    
     18000   582.11975     -3204.6369     -3238.2714      33.634463      16466.388      10112.159    
     18100   572.6613      -3206.9345     -3240.0224      33.08796       15818.985      10112.159    
     18200   600.87171     -3207.0631     -3241.781       34.717938      15409.917      10112.159    
     18300   593.47808     -3205.099      -3239.3898      34.290739      16130.369      10112.159    
     18400   649.85245     -3201.6814     -3239.2294      37.54801       16431.783      10112.159    
     18500   550.645       -3202.5298     -3234.3457      31.815874      17421.251      10112.159    
     18600   612.28565     -3202.8916     -3238.269       35.377427      16449.748      10112.159    
     18700   604.41683     -3204.9977     -3239.9204      34.922772      15487.361      10112.159    
     18800   620.42378     -3206.2316     -3242.0792      35.847642      15587.448      10112.159    
     18900   554.25754     -3207.0714     -3239.096       32.024605      15783.516      10112.159    
     19000   592.74992     -3204.9398     -3239.1884      34.248667      16145.545      10112.159    
     19100   597.03164     -3204.3711     -3238.8671      34.496061      16193.479      10112.159    
     19200   602.57337     -3203.9968     -3238.813       34.816258      16376.048      10112.159    
     19300   613.34402     -3203.5023     -3238.9409      35.438579      16530.521      10112.159    
     19400   635.79865     -3203.2206     -3239.9566      36.735991      16274.458      10112.159    
     19500   583.5105      -3204.2643     -3237.9791      33.714819      15816.883      10112.159    
     19600   548.64115     -3206.501      -3238.2011      31.700093      16696.31       10112.159    
     19700   599.78527     -3207.1009     -3241.756       34.655164      15593.297      10112.159    
     19800   585.68483     -3205.8955     -3239.736       33.84045       15336.578      10112.159    
     19900   627.07882     -3202.3917     -3238.6239      36.232166      17090.886      10112.159    
     20000   609.36093     -3202.2839     -3237.4924      35.208439      16878.647      10112.159    
     20100   587.46638     -3203.9585     -3237.9019      33.943387      16925.529      10112.159    
     20200   593.65939     -3206.3177     -3240.6189      34.301215      15257.101      10112.159    
     20300   598.17202     -3206.2607     -3240.8227      34.561952      15947.571      10112.159    
     20400   572.91587     -3205.7628     -3238.8655      33.102669      16184.483      10112.159    
     20500   600.02415     -3204.7113     -3239.3802      34.668967      16465.822      10112.159    
     20600   618.63124     -3203.7614     -3239.5054      35.74407       16366.257      10112.159    
     20700   627.35841     -3202.3037     -3238.552       36.24832       16623.69       10112.159    
     20800   636.90116     -3200.5061     -3237.3058      36.799694      17275.182      10112.159    
     20900   605.6155      -3201.5586     -3236.5507      34.99203       16517.35       10112.159    
     21000   582.48688     -3204.7883     -3238.444       33.655675      16735.621      10112.159    
     21100   607.84368     -3206.0137     -3241.1345      35.120773      15756.701      10112.159    
     21200   586.33446     -3206.3881     -3240.2661      33.877986      15408.066      10112.159    
     21300   607.30371     -3204.5075     -3239.5971      35.089574      16068.449      10112.159    
     21400   612.43221     -3201.4493     -3236.8352      35.385895      16722.027      10112.159    
     21500   596.80269     -3201.2721     -3235.7549      34.482832      17742.533      10112.159    
     21600   640.59425     -3202.4448     -3239.4579      37.013078      16064.428      10112.159    
     21700   581.98254     -3204.4883     -3238.1148      33.626535      16371.791      10112.159    
     21800   614.03081     -3205.0162     -3240.4944      35.478261      15788.908      10112.159    
     21900   567.01562     -3206.5398     -3239.3015      32.761757      15946.92       10112.159    
     22000   586.83163     -3205.9212     -3239.8279      33.906712      15653.8        10112.159    
     22100   622.37663     -3202.4796     -3238.44        35.960477      16365.435      10112.159    
     22200   668.31065     -3201.592      -3240.2065      38.614511      16251.185      10112.159    
     22300   595.65029     -3203.8056     -3238.2218      34.416248      16438.895      10112.159    
     22400   582.30831     -3205.4053     -3239.0507      33.645357      16541.567      10112.159    
     22500   575.9617      -3205.8802     -3239.1588      33.278655      16465.757      10112.159    
     22600   605.12984     -3205.1435     -3240.1074      34.963969      15853.565      10112.159    
     22700   610.56065     -3204.5496     -3239.8273      35.277758      16660.211      10112.159    
     22800   574.47823     -3204.4702     -3237.6632      33.192941      16356.488      10112.159    
     22900   596.72122     -3203.8107     -3238.2888      34.478126      16480.003      10112.159    
     23000   597.05142     -3203.0053     -3237.5025      34.497204      17297.557      10112.159    
     23100   634.3114      -3201.9961     -3238.6461      36.650059      16307.593      10112.159    
     23200   608.62227     -3204.2252     -3239.391       35.165759      16061.738      10112.159    
     23300   576.27138     -3205.7468     -3239.0434      33.296548      16467.911      10112.159    
     23400   594.7872      -3206.2489     -3240.6153      34.366379      15459.753      10112.159    
     23500   551.38325     -3208.1994     -3240.0579      31.85853       15738.753      10112.159    
     23600   620.50643     -3207.12       -3242.9725      35.852418      15506.307      10112.159    
     23700   585.68394     -3204.4484     -3238.2888      33.840399      15761.207      10112.159    
     23800   613.46962     -3202.1866     -3237.6325      35.445836      17088.193      10112.159    
     23900   618.64703     -3202.372      -3238.117       35.744983      16430.415      10112.159    
     24000   593.36218     -3204.9833     -3239.2674      34.284042      15703.727      10112.159    
     24100   582.31126     -3206.2025     -3239.848       33.645528      15587.378      10112.159    
     24200   600.37901     -3205.4799     -3240.1693      34.68947       15692.211      10112.159    
     24300   622.17612     -3204.4843     -3240.4332      35.948891      15956.461      10112.159    
     24400   583.77156     -3204.6414     -3238.3713      33.729903      16793.147      10112.159    
     24500   581.31975     -3204.1354     -3237.7236      33.58824       16237.341      10112.159    
     24600   638.39728     -3201.5281     -3238.4142      36.886138      16901.324      10112.159    
     24700   612.47467     -3201.7768     -3237.1651      35.388348      17102.991      10112.159    
     24800   605.89477     -3203.7297     -3238.7379      35.008167      16447.438      10112.159    
     24900   561.60598     -3206.8769     -3239.3261      32.449192      16063.179      10112.159    
     25000   580.35205     -3206.0779     -3239.6102      33.532326      16194.046      10112.159    
     25100   624.27887     -3204.4307     -3240.5011      36.070386      16107.062      10112.159    
     25200   596.23092     -3203.5949     -3238.0447      34.449796      16558.24       10112.159    
     25300   620.48565     -3202.0875     -3237.9387      35.851217      17106.489      10112.159    
     25400   584.06305     -3204.3654     -3238.1121      33.746745      16245.866      10112.159    
     25500   598.32265     -3206.8243     -3241.3949      34.570655      15368.021      10112.159    
     25600   586.83018     -3207.1226     -3241.0293      33.906628      15910.311      10112.159    
     25700   576.66391     -3204.9148     -3238.234       33.319228      16826.305      10112.159    
     25800   610.03303     -3202.7491     -3237.9963      35.247272      17234.087      10112.159    
     25900   615.9341      -3202.7507     -3238.339       35.588232      16528.335      10112.159    
     26000   611.56493     -3203.5096     -3238.8454      35.335785      17309.934      10112.159    
     26100   540.94818     -3206.555      -3237.8106      31.255599      16610.955      10112.159    
     26200   588.29607     -3206.2664     -3240.2577      33.991326      15844.788      10112.159    
     26300   615.73037     -3205.4401     -3241.0166      35.576461      16004.356      10112.159    
     26400   592.90923     -3204.916      -3239.1739      34.257871      16471.725      10112.159    
     26500   610.07655     -3202.7852     -3238.035       35.249787      17331.781      10112.159    
     26600   634.24027     -3200.2075     -3236.8535      36.645949      17286.252      10112.159    
     26700   648.25185     -3199.0548     -3236.5103      37.455528      17739.869      10112.159    
     26800   617.1116      -3202.9528     -3238.6091      35.656267      16273.185      10112.159    
     26900   613.12549     -3204.929      -3240.355       35.425953      16056.273      10112.159    
     27000   578.99111     -3206.3284     -3239.7821      33.453692      16745.103      10112.159    
     27100   571.10221     -3206.2471     -3239.245       32.997877      16025.291      10112.159    
     27200   620.63556     -3203.6278     -3239.4877      35.859879      16592.476      10112.159    
     27300   645.26433     -3201.9697     -3239.2527      37.282911      15805.554      10112.159    
     27400   596.32535     -3202.7944     -3237.2496      34.455252      16853.064      10112.159    
     27500   603.50541     -3205.5638     -3240.4339      34.870111      16010.557      10112.159    
     27600   557.34881     -3208.4245     -3240.6277      32.203215      16095.047      10112.159    
     27700   608.28501     -3206.4892     -3241.6354      35.146273      15416.727      10112.159    
     27800   590.46809     -3204.0076     -3238.1244      34.116824      16193.394      10112.159    
     27900   634.70268     -3202.3532     -3239.0259      36.672667      16740.529      10112.159    
     28000   600.07573     -3203.3987     -3238.0706      34.671947      16949.856      10112.159    
     28100   587.69751     -3205.5547     -3239.5114      33.956742      15540.318      10112.159    
     28200   570.43166     -3207.2969     -3240.2561      32.959134      15199.197      10112.159    
     28300   607.33603     -3206.3499     -3241.4413      35.091441      15832.748      10112.159    
     28400   599.60209     -3202.5316     -3237.1762      34.64458       16517.288      10112.159    
     28500   638.97428     -3200.7128     -3237.6322      36.919477      17513.906      10112.159    
     28600   583.62733     -3203.218      -3236.9396      33.72157       16516.204      10112.159    
     28700   594.11751     -3205.381      -3239.7087      34.327685      15874.86       10112.159    
     28800   597.82898     -3205.834      -3240.3761      34.542131      15899.974      10112.159    
     28900   581.53265     -3205.2221     -3238.8226      33.600541      16239.659      10112.159    
     29000   649.23985     -3201.9229     -3239.4356      37.512614      16364.924      10112.159    
     29100   609.26234     -3201.3726     -3236.5753      35.202742      17267.64       10112.159    
     29200   577.26846     -3203.1258     -3236.48        33.354159      17023.139      10112.159    
     29300   623.0025      -3205.4699     -3241.4666      35.996639      15649.595      10112.159    
     29400   599.27234     -3206.2913     -3240.9168      34.625527      16451.893      10112.159    
     29500   608.64139     -3205.1181     -3240.2849      35.166864      15743.717      10112.159    
     29600   586.36107     -3203.7744     -3237.6539      33.879523      16597.169      10112.159    
     29700   634.69226     -3201.8522     -3238.5243      36.672065      16542.361      10112.159    
     29800   631.76093     -3203.0514     -3239.5541      36.502695      16542.887      10112.159    
     29900   587.85912     -3205.9423     -3239.9083      33.966079      15807.178      10112.159    
     30000   572.86611     -3206.0947     -3239.1945      33.099794      16172.324      10112.159    
     30100   593.25197     -3205.0384     -3239.3161      34.277674      16323.664      10112.159    
     30200   642.26714     -3202.1708     -3239.2806      37.109736      16528.667      10112.159    
     30300   615.41748     -3201.4542     -3237.0125      35.558382      17479.901      10112.159    
     30400   585.39794     -3203.3794     -3237.2033      33.823874      16997.445      10112.159    
     30500   603.90506     -3205.6369     -3240.5301      34.893203      16191.184      10112.159    
     30600   587.39404     -3205.467      -3239.4062      33.939208      15706.949      10112.159    
     30700   589.99631     -3204.9961     -3239.0857      34.089565      16636.72       10112.159    
     30800   613.5774      -3204.2357     -3239.6878      35.452063      16246.218      10112.159    
     30900   614.66028     -3202.7433     -3238.258       35.514631      16434.176      10112.159    
     31000   620.75394     -3201.7152     -3237.5819      35.866718      17210.154      10112.159    
     31100   595.07872     -3203.7327     -3238.116       34.383223      16538.757      10112.159    
     31200   583.21586     -3205.9641     -3239.6619      33.697795      15803.922      10112.159    
     31300   621.04084     -3205.9733     -3241.8566      35.883296      15125.885      10112.159    
     31400   583.70588     -3205.4167     -3239.1428      33.726108      16753.517      10112.159    
     31500   626.02386     -3202.121      -3238.2923      36.171211      17228.598      10112.159    
     31600   586.81793     -3202.4285     -3236.3344      33.90592       16640.091      10112.159    
     31700   613.14467     -3202.8332     -3238.2603      35.42706       16153.983      10112.159    
     31800   564.66267     -3206.4682     -3239.094       32.625805      16361.283      10112.159    
     31900   600.53949     -3207.1903     -3241.889       34.698742      15533.53       10112.159    
     32000   567.98535     -3206.5001     -3239.3178      32.817787      15164.07       10112.159    
     32100   597.71493     -3204.0098     -3238.5453      34.535541      16039.515      10112.159    
     32200   594.83009     -3203.1743     -3237.5431      34.368857      16190.545      10112.159    
     32300   621.97617     -3203.2427     -3239.18        35.937338      16086.927      10112.159    
     32400   611.81981     -3203.8578     -3239.2083      35.350511      16059.059      10112.159    
     32500   580.32152     -3205.7996     -3239.3301      33.530562      16104.938      10112.159    
     32600   542.13239     -3208.5714     -3239.8954      31.324022      15726.663      10112.159    
     32700   586.7578      -3207.2777     -3241.1802      33.902446      15538.169      10112.159    
     32800   590.76246     -3205.0528     -3239.1866      34.133833      16146.446      10112.159    
     32900   634.23452     -3203.3491     -3239.9947      36.645617      14956.691      10112.159    
     33000   576.37023     -3203.775      -3237.0772      33.30226       16618.568      10112.159    
     33100   619.49697     -3202.8535     -3238.6476      35.794092      16127.931      10112.159    
     33200   612.60761     -3204.2207     -3239.6167      35.396029      15776.872      10112.159    
     33300   575.91479     -3206.9819     -3240.2579      33.275945      15870.19       10112.159    
     33400   610.55127     -3205.7974     -3241.0746      35.277216      15553.607      10112.159    
     33500   558.78966     -3204.9479     -3237.2344      32.286467      16780.961      10112.159    
     33600   628.59731     -3202.925      -3239.2449      36.319903      16129.521      10112.159    
     33700   603.41653     -3203.1833     -3238.0483      34.864975      16345.055      10112.159    
     33800   595.88998     -3203.3639     -3237.794       34.430097      16907.778      10112.159    
     33900   630.24704     -3203.4864     -3239.9017      36.415223      16370.382      10112.159    
     34000   605.48588     -3205.2031     -3240.1876      34.984541      15601.959      10112.159    
     34100   556.31088     -3207.6331     -3239.7764      32.143245      15727.221      10112.159    
     34200   583.29028     -3207.2866     -3240.9887      33.702095      15584.735      10112.159    
     34300   617.99434     -3202.97       -3238.6772      35.707271      16733.752      10112.159    
     34400   604.81085     -3202.1003     -3237.0458      34.945539      16938.022      10112.159    
     34500   624.36598     -3202.6993     -3238.7747      36.07542       16550.173      10112.159    
     34600   574.74746     -3205.6815     -3238.89        33.208497      16642.443      10112.159    
     34700   607.31103     -3205.5863     -3240.6763      35.089997      15958.345      10112.159    
     34800   592.17882     -3205.023      -3239.2386      34.215668      16531.416      10112.159    
     34900   602.37571     -3203.8278     -3238.6327      34.804837      16706.747      10112.159    
     35000   605.50025     -3201.9845     -3236.9698      34.985371      16950.492      10112.159    
     35100   635.37738     -3199.3856     -3236.0973      36.711651      17898.114      10112.159    
     35200   631.08328     -3200.3204     -3236.784       36.46354       17145.879      10112.159    
     35300   604.29459     -3203.8269     -3238.7426      34.915709      16743.661      10112.159    
     35400   591.5181      -3205.1464     -3239.3239      34.177493      16171.224      10112.159    
     35500   588.56469     -3205.2648     -3239.2717      34.006847      16667.95       10112.159    
     35600   574.62572     -3204.9156     -3238.1171      33.201463      16697.889      10112.159    
     35700   635.61516     -3203.302      -3240.0274      36.725389      15497.04       10112.159    
     35800   632.47854     -3201.4336     -3237.9778      36.544158      16801.081      10112.159    
     35900   605.06214     -3202.2173     -3237.1773      34.960058      17279.911      10112.159    
     36000   612.10963     -3204.5672     -3239.9345      35.367257      16683.548      10112.159    
     36100   575.74252     -3205.9134     -3239.1794      33.265991      15989.347      10112.159    
     36200   597.5942      -3205.7197     -3240.2482      34.528566      15792.885      10112.159    
     36300   607.17177     -3204.9687     -3240.0507      35.081951      15840.798      10112.159    
     36400   595.87583     -3203.6981     -3238.1273      34.42928       16848.608      10112.159    
     36500   637.82632     -3201.4293     -3238.2825      36.853149      17009.908      10112.159    
     36600   616.13387     -3200.4633     -3236.0631      35.599774      17736.42       10112.159    
     36700   607.82226     -3201.9804     -3237.1         35.119536      16946.174      10112.159    
     36800   596.9474      -3204.5273     -3239.0185      34.491194      16274.54       10112.159    
     36900   581.64837     -3206.4474     -3240.0547      33.607227      15957.943      10112.159    
     37000   594.58865     -3206.7175     -3241.0724      34.354907      15891.548      10112.159    
     37100   615.49906     -3203.8974     -3239.4605      35.563095      16456.759      10112.159    
     37200   615.4113      -3202.2174     -3237.7754      35.558025      16918.865      10112.159    
     37300   628.51327     -3202.5357     -3238.8508      36.315047      16223.94       10112.159    
     37400   619.12068     -3204.4031     -3240.1755      35.77235       16304.469      10112.159    
     37500   596.09484     -3207.1809     -3241.6229      34.441933      15422.653      10112.159    
     37600   590.76833     -3206.5613     -3240.6955      34.134172      15909.841      10112.159    
     37700   572.12587     -3205.3018     -3238.3588      33.057024      16517.757      10112.159    
     37800   615.39846     -3203.419      -3238.9763      35.557283      16505.966      10112.159    
     37900   610.04925     -3203.1189     -3238.3671      35.248209      16468.933      10112.159    
     38000   578.22257     -3204.2127     -3237.622       33.409287      16271.926      10112.159    
     38100   596.68486     -3206.6884     -3241.1645      34.476025      15567.163      10112.159    
     38200   591.03201     -3207.6427     -3241.7921      34.149407      15388.534      10112.159    
     38300   591.56441     -3205.6474     -3239.8276      34.180168      16195.716      10112.159    
     38400   595.3548      -3203.4982     -3237.8974      34.399175      16959.647      10112.159    
     38500   592.19781     -3203.3886     -3237.6054      34.216766      16561.54       10112.159    
     38600   624.37999     -3203.6894     -3239.7657      36.076229      16404.254      10112.159    
     38700   617.08352     -3204.8582     -3240.5129      35.654645      15543.027      10112.159    
     38800   563.14566     -3206.7348     -3239.273       32.538154      15746.583      10112.159    
     38900   568.51233     -3209.1269     -3241.9751      32.848236      14988.89       10112.159    
     39000   562.75765     -3210.2169     -3242.7327      32.515734      14810.169      10112.159    
     39100   573.07009     -3207.2439     -3240.3554      33.11158       15909.714      10112.159    
     39200   610.77267     -3204.6808     -3239.9708      35.290008      15699.125      10112.159    
     39300   591.42072     -3203.5164     -3237.6882      34.171866      16863.732      10112.159    
     39400   595.52985     -3202.7957     -3237.205       34.409289      16908.539      10112.159    
     39500   625.56856     -3202.9018     -3239.0467      36.144904      16270.731      10112.159    
     39600   618.34869     -3205.6108     -3241.3385      35.727745      15318.442      10112.159    
     39700   577.79318     -3207.109      -3240.4935      33.384477      14977.302      10112.159    
     39800   606.86473     -3205.9352     -3240.9994      35.06421       16456.246      10112.159    
     39900   595.03814     -3204.7418     -3239.1227      34.380878      16173.025      10112.159    
     40000   619.26719     -3201.0375     -3236.8183      35.780815      17123.72       10112.159    
     40100   639.54925     -3200.4453     -3237.398       36.952698      16634.506      10112.159    
     40200   632.03017     -3202.3971     -3238.9153      36.518251      16823.302      10112.159    
     40300   603.98111     -3204.7071     -3239.6047      34.897597      16647.486      10112.159    
     40400   555.48478     -3205.7672     -3237.8627      32.095513      15601.878      10112.159    
     40500   616.591       -3204.4923     -3240.1185      35.626187      16423.997      10112.159    
     40600   615.40897     -3203.4035     -3238.9614      35.55789       16602.174      10112.159    
     40700   629.96561     -3200.4012     -3236.8002      36.398962      16755.869      10112.159    
     40800   629.756       -3199.1096     -3235.4965      36.386851      17327.998      10112.159    
     40900   607.87347     -3201.9034     -3237.0259      35.122494      16998.93       10112.159    
     41000   606.24933     -3204.8098     -3239.8384      35.028653      15985.967      10112.159    
     41100   592.01012     -3206.3121     -3240.518       34.205921      15553.015      10112.159    
     41200   577.58091     -3206.3791     -3239.7513      33.372212      16093.728      10112.159    
     41300   603.73043     -3203.8166     -3238.6997      34.883112      16419.07       10112.159    
     41400   616.85263     -3202.0396     -3237.6809      35.641304      16623.533      10112.159    
     41500   618.94603     -3202.3599     -3238.1222      35.762259      16501.989      10112.159    
     41600   599.73892     -3203.2249     -3237.8773      34.652486      16536.974      10112.159    
     41700   588.97035     -3204.2153     -3238.2456      34.030286      16132.142      10112.159    
     41800   595.4276      -3205.2193     -3239.6227      34.403381      15794.659      10112.159    
     41900   594.82718     -3205.8754     -3240.2441      34.368689      15829.534      10112.159    
     42000   558.51329     -3205.489      -3237.7595      32.270499      15952.007      10112.159    
     42100   620.26114     -3203.3491     -3239.1874      35.838245      16457.138      10112.159    
     42200   603.10222     -3202.6646     -3237.5114      34.846815      16644.959      10112.159    
     42300   629.01577     -3202.8363     -3239.1803      36.344081      16538.005      10112.159    
     42400   601.01        -3205.5038     -3240.2297      34.725928      16007.417      10112.159    
     42500   558.46433     -3207.5788     -3239.8465      32.26767       16165.223      10112.159    
     42600   551.14601     -3207.1003     -3238.9451      31.844822      16131.219      10112.159    
     42700   644.32355     -3204.9064     -3242.135       37.228554      15578.408      10112.159    
     42800   595.87762     -3204.9768     -3239.4062      34.429383      16125.942      10112.159    
     42900   630.4556      -3203.6996     -3240.1269      36.427274      16381.837      10112.159    
     43000   582.36004     -3204.1353     -3237.7836      33.648347      16570.706      10112.159    
     43100   623.50022     -3204.7581     -3240.7835      36.025397      15705.488      10112.159    
     43200   583.82534     -3206.3891     -3240.1221      33.73301       15470.089      10112.159    
     43300   584.11579     -3207.2696     -3241.0194      33.749792      15826.314      10112.159    
     43400   597.96022     -3205.4605     -3240.0102      34.549714      15853.597      10112.159    
     43500   647.21668     -3202.7733     -3240.169       37.395717      16536.566      10112.159    
     43600   568.81085     -3203.2289     -3236.0943      32.865484      16817.869      10112.159    
     43700   617.5548      -3202.4122     -3238.0941      35.681875      16661.033      10112.159    
     43800   620.74999     -3204.2412     -3240.1077      35.866491      16054.905      10112.159    
     43900   564.48935     -3207.2426     -3239.8584      32.615791      15392.544      10112.159    
     44000   586.12665     -3206.0894     -3239.9554      33.865979      16097.016      10112.159    
     44100   616.19827     -3203.8437     -3239.4472      35.603495      16070.711      10112.159    
     44200   629.0318      -3202.8955     -3239.2405      36.345007      16464.142      10112.159    
     44300   594.71846     -3203.5599     -3237.9224      34.362407      16502.814      10112.159    
     44400   615.91471     -3203.985      -3239.5721      35.587112      15858.117      10112.159    
     44500   576.91158     -3205.9093     -3239.2429      33.333539      15806.315      10112.159    
     44600   559.23446     -3206.9399     -3239.2521      32.312167      15584.37       10112.159    
     44700   604.59937     -3205.5479     -3240.4812      34.933319      16273.217      10112.159    
     44800   645.65479     -3202.542      -3239.8475      37.305472      16515.987      10112.159    
     44900   598.54089     -3202.4873     -3237.0705      34.583265      16456.225      10112.159    
     45000   612.14827     -3202.9794     -3238.3489      35.369489      16452.624      10112.159    
     45100   613.05678     -3204.7108     -3240.1328      35.421982      16744.542      10112.159    
     45200   551.27478     -3208.079      -3239.9312      31.852263      14981.218      10112.159    
     45300   569.19106     -3207.6901     -3240.5776      32.887452      15641.073      10112.159    
     45400   597.60536     -3205.9413     -3240.4705      34.52921       15746.467      10112.159    
     45500   618.1653      -3203.9275     -3239.6447      35.717149      16326.753      10112.159    
     45600   593.49018     -3203.4214     -3237.7129      34.291438      16667.768      10112.159    
     45700   607.81159     -3203.456      -3238.5749      35.118919      16208.931      10112.159    
     45800   608.26253     -3205.3836     -3240.5286      35.144974      16451.042      10112.159    
     45900   569.15554     -3207.9095     -3240.7949      32.8854        15725.51       10112.159    
     46000   602.01278     -3207.103      -3241.8869      34.783868      15405.679      10112.159    
     46100   599.95118     -3204.2529     -3238.9176      34.66475       17017.328      10112.159    
     46200   604.83474     -3203.4202     -3238.3672      34.946919      16476.142      10112.159    
     46300   618.41492     -3203.6542     -3239.3857      35.731572      16360.863      10112.159    
     46400   602.60968     -3204.2355     -3239.0538      34.818356      16374.047      10112.159    
     46500   596.23968     -3205.5654     -3240.0157      34.450302      16039.713      10112.159    
     46600   581.39474     -3207.3926     -3240.9852      33.592573      15217.215      10112.159    
     46700   580.57544     -3206.752      -3240.2972      33.545234      15407.179      10112.159    
     46800   622.24685     -3203.2622     -3239.2151      35.952978      16306.669      10112.159    
     46900   606.36067     -3202.6817     -3237.7168      35.035086      16659.829      10112.159    
     47000   581.01899     -3203.4715     -3237.0423      33.570862      16534.254      10112.159    
     47100   611.96629     -3204.2381     -3239.5971      35.358975      15702.744      10112.159    
     47200   584.76334     -3207.4674     -3241.2546      33.787207      15269.66       10112.159    
     47300   537.0709      -3208.3422     -3239.3738      31.031572      15445.782      10112.159    
     47400   594.87158     -3206.1974     -3240.5686      34.371254      15952.93       10112.159    
     47500   593.11079     -3204.7811     -3239.0506      34.269517      16593.785      10112.159    
     47600   621.71124     -3203.9594     -3239.8814      35.922031      15771.109      10112.159    
     47700   615.00278     -3203.5625     -3239.0969      35.534421      16008.219      10112.159    
     47800   579.55088     -3203.2696     -3236.7556      33.486035      16553.154      10112.159    
     47900   589.85976     -3205.9896     -3240.0713      34.081675      16126.548      10112.159    
     48000   599.07784     -3207.1636     -3241.7779      34.614289      15216.548      10112.159    
     48100   596.8892      -3205.9408     -3240.4286      34.487831      15936.84       10112.159    
     48200   608.16509     -3203.6679     -3238.8072      35.139344      16237.211      10112.159    
     48300   621.96191     -3202.233      -3238.1695      35.936514      16258.015      10112.159    
     48400   620.85205     -3201.2809     -3237.1533      35.872388      16985.785      10112.159    
     48500   629.56719     -3199.4744     -3235.8504      36.375942      17648.799      10112.159    
     48600   625.28687     -3201.9835     -3238.1121      36.128628      16262.316      10112.159    
     48700   613.87275     -3204.5525     -3240.0217      35.469129      16030.389      10112.159    
     48800   590.56884     -3206.1469     -3240.2695      34.122645      15660.008      10112.159    
     48900   590.12571     -3206.0745     -3240.1715      34.097042      16202.123      10112.159    
     49000   564.0679      -3204.2965     -3236.8879      32.59144       17776.918      10112.159    
     49100   644.45746     -3200.8973     -3238.1336      37.236291      16481.239      10112.159    
     49200   620.47939     -3201.5987     -3237.4496      35.850856      16318.69       10112.159    
     49300   584.34913     -3203.5335     -3237.2967      33.763275      17066.597      10112.159    
     49400   603.82902     -3204.323      -3239.2118      34.888809      16257.982      10112.159    
     49500   581.26955     -3205.292      -3238.8774      33.585339      16017.437      10112.159    
     49600   604.94161     -3205.0634     -3240.0165      34.953094      15507.294      10112.159    
     49700   629.37639     -3204.2493     -3240.6142      36.364917      15808.743      10112.159    
     49800   609.20054     -3201.9446     -3237.1438      35.199171      16552.263      10112.159    
     49900   644.74388     -3200.3445     -3237.5974      37.25284       16860.427      10112.159    
     50000   615.8426      -3202.2062     -3237.7891      35.582945      16327.327      10112.159    
     50100   614.50316     -3205.1921     -3240.6977      35.505553      15900.039      10112.159    
     50200   567.39234     -3206.5406     -3239.3241      32.783524      16069.055      10112.159    
     50300   619.39337     -3205.2428     -3241.0309      35.788106      16135.607      10112.159    
     50400   558.67215     -3204.2715     -3236.5512      32.279677      16811.457      10112.159    
     50500   652.79974     -3201.504      -3239.2223      37.718302      16048.12       10112.159    
     50600   576.67385     -3202.3994     -3235.7192      33.319803      16601.133      10112.159    
     50700   629.4817      -3202.676      -3239.047       36.371002      16758.5        10112.159    
     50800   624.31093     -3204.405      -3240.4772      36.072239      16196.481      10112.159    
     50900   581.26207     -3206.2985     -3239.8834      33.584907      15933.864      10112.159    
     51000   604.38482     -3206.0749     -3240.9959      34.920923      15919.448      10112.159    
     51100   581.52406     -3205.5144     -3239.1145      33.600044      15931.612      10112.159    
     51200   605.73473     -3204.5093     -3239.5082      34.998919      15991.927      10112.159    
     51300   623.24463     -3204.0386     -3240.0492      36.010629      16261.468      10112.159    
     51400   556.10136     -3204.746      -3236.8771      32.131139      16705.87       10112.159    
     51500   640.28923     -3202.4916     -3239.487       36.995454      16644.347      10112.159    
     51600   634.77155     -3199.9655     -3236.6422      36.676646      17350.77       10112.159    
     51700   638.48494     -3201.1852     -3238.0764      36.891203      16673.894      10112.159    
     51800   565.42364     -3205.3151     -3237.9849      32.669774      15895.903      10112.159    
     51900   600.93014     -3205.0632     -3239.7845      34.721314      16541.201      10112.159    
     52000   614.82068     -3204.649      -3240.1729      35.523899      16461.397      10112.159    
     52100   595.47043     -3204.5838     -3238.9897      34.405856      16193.843      10112.159    
     52200   622.26331     -3203.5135     -3239.4674      35.953929      16286.922      10112.159    
     52300   601.03368     -3203.5466     -3238.2739      34.727296      16270.541      10112.159    
     52400   598.85877     -3203.7129     -3238.3145      34.601631      16234.329      10112.159    
     52500   583.9924      -3204.669      -3238.4117      33.742663      16837.82       10112.159    
     52600   599.27903     -3205.5691     -3240.195       34.625914      16237.366      10112.159    
     52700   584.35872     -3206.5608     -3240.3246      33.763829      15825.773      10112.159    
     52800   578.52568     -3206.4912     -3239.918       33.4268        15796.228      10112.159    
     52900   640.83628     -3203.653      -3240.68        37.027062      16603.495      10112.159    
     53000   554.6153      -3203.7861     -3235.8314      32.045275      16803.389      10112.159    
     53100   637.57182     -3202.0604     -3238.8989      36.838444      16759.747      10112.159    
     53200   604.13714     -3203.3898     -3238.2964      34.906612      16482.206      10112.159    
     53300   577.36455     -3206.386      -3239.7457      33.359711      15949.49       10112.159    
     53400   589.47516     -3206.5534     -3240.6129      34.059453      16035.214      10112.159    
     53500   574.75347     -3205.0845     -3238.2934      33.208844      16616.743      10112.159    
     53600   627.20013     -3202.1589     -3238.3981      36.239175      16876.73       10112.159    
     53700   601.27411     -3202.6345     -3237.3757      34.741188      16337.401      10112.159    
     53800   638.30564     -3203.0726     -3239.9535      36.880843      16325.189      10112.159    
     53900   599.71777     -3204.7573     -3239.4086      34.651264      16825.767      10112.159    
     54000   607.88112     -3205.2387     -3240.3617      35.122937      15620.412      10112.159    
     54100   588.32986     -3205.3744     -3239.3677      33.993279      16111.385      10112.159    
     54200   584.7276      -3204.9528     -3238.7379      33.785142      16131.076      10112.159    
     54300   651.3008      -3203.1469     -3240.7786      37.631695      15657.152      10112.159    
     54400   596.11912     -3202.37       -3236.8134      34.443337      16637.418      10112.159    
     54500   646.4683      -3199.9467     -3237.2992      37.352476      17348.727      10112.159    
     54600   609.17488     -3201.8699     -3237.0676      35.197689      16866.805      10112.159    
     54700   629.47332     -3204.1175     -3240.488       36.370518      15348.213      10112.159    
     54800   584.77333     -3205.881      -3239.6688      33.787785      15773.121      10112.159    
     54900   599.23802     -3205.4462     -3240.0697      34.623544      16042.739      10112.159    
     55000   606.45246     -3203.554      -3238.5944      35.040389      16229.806      10112.159    
     55100   631.241       -3200.1714     -3236.644       36.472654      17403.301      10112.159    
     55200   639.57224     -3199.635      -3236.5891      36.954027      17645.658      10112.159    
     55300   636.80025     -3201.7029     -3238.4968      36.793863      16645.731      10112.159    
     55400   591.24902     -3203.793      -3237.9549      34.161946      16067.519      10112.159    
     55500   601.29376     -3205.1448     -3239.8871      34.742323      16204.16       10112.159    
     55600   567.7153      -3206.5151     -3239.3173      32.802184      16155.459      10112.159    
     55700   581.84034     -3205.9465     -3239.5648      33.618319      16106.937      10112.159    
     55800   620.70032     -3202.596      -3238.4597      35.86362       16095.104      10112.159    
     55900   635.98712     -3201.1213     -3237.8682      36.746881      17095.404      10112.159    
     56000   601.28404     -3203.3764     -3238.1181      34.741762      16872.487      10112.159    
     56100   604.86778     -3204.7958     -3239.7446      34.948828      15880.118      10112.159    
     56200   587.03632     -3204.8471     -3238.7656      33.918539      15904.917      10112.159    
     56300   608.6068      -3203.5707     -3238.7355      35.164866      16337.688      10112.159    
     56400   604.04029     -3202.996      -3237.897       34.901016      16995.753      10112.159    
     56500   571.16579     -3204.6939     -3237.6955      33.001551      16406.944      10112.159    
     56600   618.08665     -3205.314      -3241.0266      35.712605      15699.807      10112.159    
     56700   579.45053     -3207.1662     -3240.6465      33.480237      15881.807      10112.159    
     56800   578.61335     -3207.6018     -3241.0336      33.431866      15272.421      10112.159    
     56900   586.89387     -3204.1787     -3238.089       33.910308      16402.413      10112.159    
     57000   631.90853     -3203.0343     -3239.5455      36.511223      16508.122      10112.159    
     57100   595.54736     -3204.2706     -3238.6809      34.410301      16509.256      10112.159    
     57200   602.35634     -3204.8227     -3239.6264      34.803719      15447.25       10112.159    
     57300   599.5562      -3205.2197     -3239.8617      34.641929      16194.217      10112.159    
     57400   580.33723     -3205.2962     -3238.8277      33.53147       16610.625      10112.159    
     57500   603.27919     -3204.4179     -3239.2749      34.85704       16458.005      10112.159    
     57600   605.36509     -3203.8738     -3238.8513      34.977562      15899.282      10112.159    
     57700   612.00712     -3203.0359     -3238.3973      35.361334      16296.28       10112.159    
     57800   601.11298     -3202.3411     -3237.073       34.731878      16793.888      10112.159    
     57900   560.73039     -3204.8715     -3237.2701      32.398601      16825.202      10112.159    
     58000   620.01656     -3206.2305     -3242.0546      35.824113      15291.414      10112.159    
     58100   572.34181     -3207.016      -3240.0855      33.069501      16193.977      10112.159    
     58200   642.44308     -3203.5853     -3240.7052      37.119901      16358.022      10112.159    
     58300   597.40736     -3201.472      -3235.9898      34.51777       16951.355      10112.159    
     58400   619.09601     -3201.8292     -3237.6001      35.770925      16890.84       10112.159    
     58500   606.12735     -3203.9332     -3238.9548      35.021605      16229.076      10112.159    
     58600   588.5468      -3205.3569     -3239.3627      34.005813      16616.899      10112.159    
     58700   580.62818     -3205.5947     -3239.143       33.548281      15935.305      10112.159    
     58800   626.33943     -3204.0699     -3240.2594      36.189444      16145.736      10112.159    
     58900   606.05784     -3201.9216     -3236.9392      35.017589      17357.889      10112.159    
     59000   648.10592     -3198.2986     -3235.7457      37.447097      17429.527      10112.159    
     59100   614.36844     -3200.0322     -3235.53        35.497769      17057.221      10112.159    
     59200   594.46747     -3203.0983     -3237.4463      34.347905      17232.451      10112.159    
     59300   603.79572     -3204.6156     -3239.5024      34.886885      16822.012      10112.159    
     59400   579.72414     -3205.9874     -3239.4835      33.496046      16343.798      10112.159    
     59500   613.88045     -3205.5569     -3241.0265      35.469573      15473.287      10112.159    
     59600   634.74384     -3202.7115     -3239.3866      36.675045      16280.782      10112.159    
     59700   613.98846     -3201.1269     -3236.6027      35.475814      17122.641      10112.159    
     59800   628.57038     -3202.1678     -3238.4862      36.318347      16452.676      10112.159    
     59900   598.83488     -3205.3243     -3239.9245      34.600251      16291.955      10112.159    
     60000   574.70144     -3205.8244     -3239.0302      33.205838      15944.099      10112.159    
     60100   606.15659     -3204.6113     -3239.6346      35.023294      16324.319      10112.159    
     60200   605.51041     -3203.0575     -3238.0435      34.985958      16527.384      10112.159    
     60300   641.62927     -3201.4638     -3238.5367      37.072881      16947.719      10112.159    
     60400   617.81424     -3203.7441     -3239.441       35.696865      16557.028      10112.159    
     60500   564.36862     -3207.2641     -3239.8729      32.608815      16011.223      10112.159    
     60600   595.69344     -3206.3206     -3240.7393      34.418741      15875.747      10112.159    
     60700   601.54206     -3203.9511     -3238.7078      34.75667       16703.869      10112.159    
     60800   598.83428     -3202.7859     -3237.3861      34.600216      17024.599      10112.159    
     60900   626.07843     -3202.5878     -3238.7622      36.174364      16790.205      10112.159    
     61000   568.20985     -3205.6069     -3238.4376      32.830759      16394.875      10112.159    
     61100   582.32277     -3206.9141     -3240.5603      33.646193      15801.293      10112.159    
     61200   552.93883     -3206.439      -3238.3874      31.94841       16291.864      10112.159    
     61300   598.67897     -3204.1629     -3238.7541      34.591243      16667.455      10112.159    
     61400   594.61939     -3203.4832     -3237.8399      34.356683      17511.779      10112.159    
     61500   597.13152     -3203.7167     -3238.2185      34.501832      16648.807      10112.159    
     61600   586.89622     -3205.6579     -3239.5683      33.910444      16401.594      10112.159    
     61700   595.85346     -3208.3325     -3242.7605      34.427987      15059.404      10112.159    
     61800   550.65254     -3207.9845     -3239.8008      31.81631       16498.731      10112.159    
     61900   584.81178     -3205.9537     -3239.7437      33.790006      16435.858      10112.159    
     62000   615.86488     -3203.7517     -3239.3359      35.584232      16346.76       10112.159    
     62100   608.74583     -3203.3532     -3238.5261      35.172899      16416.564      10112.159    
     62200   610.36941     -3204.0377     -3239.3044      35.266708      16452.873      10112.159    
     62300   581.8962      -3206.0387     -3239.6603      33.621546      15911.845      10112.159    
     62400   590.16027     -3208.8994     -3242.9984      34.099039      15308.972      10112.159    
     62500   573.15378     -3209.0688     -3242.1852      33.116416      15254.239      10112.159    
     62600   584.67871     -3205.9029     -3239.6852      33.782317      16022.824      10112.159    
     62700   591.89632     -3204.9498     -3239.1491      34.199346      16451.232      10112.159    
     62800   595.69443     -3204.1003     -3238.5191      34.418798      16640.793      10112.159    
     62900   623.63213     -3202.5846     -3238.6176      36.033018      16436.429      10112.159    
     63000   599.71004     -3202.7133     -3237.3641      34.650817      17086.161      10112.159    
     63100   584.32906     -3205.7518     -3239.5139      33.762115      15999.752      10112.159    
     63200   585.01084     -3207.2766     -3241.0781      33.801508      15645.722      10112.159    
     63300   595.83769     -3206.0198     -3240.4469      34.427075      16218.696      10112.159    
     63400   601.10504     -3204.0874     -3238.8188      34.731419      16318.31       10112.159    
     63500   587.90468     -3203.7876     -3237.7563      33.968712      16552.616      10112.159    
     63600   629.27202     -3203.348      -3239.7069      36.358887      16190.072      10112.159    
     63700   585.40534     -3204.8243     -3238.6486      33.824302      16559.764      10112.159    
     63800   592.5733      -3207.1853     -3241.4237      34.238461      15563.722      10112.159    
     63900   551.89116     -3209.6572     -3241.545       31.887876      15595.426      10112.159    
     64000   583.1501      -3207.8769     -3241.5709      33.693996      15433.236      10112.159    
     64100   589.86333     -3206.122      -3240.2039      34.081882      16018.543      10112.159    
     64200   611.12527     -3204.5576     -3239.868       35.310381      16879.747      10112.159    
     64300   577.9478      -3204.3237     -3237.7171      33.393411      15648.023      10112.159    
     64400   634.66428     -3202.7667     -3239.4371      36.670448      16550.621      10112.159    
     64500   626.06437     -3201.0442     -3237.2178      36.173551      16844.805      10112.159    
     64600   636.33103     -3200.6561     -3237.4228      36.766752      17172.259      10112.159    
     64700   590.68861     -3204.5854     -3238.715       34.129565      15952.836      10112.159    
     64800   598.04963     -3205.8601     -3240.415       34.55488       15900.701      10112.159    
     64900   590.26602     -3205.2313     -3239.3364      34.105149      15730.025      10112.159    
     65000   626.13396     -3203.1424     -3239.3199      36.177572      16707.315      10112.159    
     65100   567.35623     -3203.6142     -3236.3956      32.781437      16835.136      10112.159    
     65200   635.73021     -3202.6961     -3239.4282      36.732037      16412.52       10112.159    
     65300   596.18929     -3203.1096     -3237.557       34.447391      16656.196      10112.159    
     65400   585.4323      -3205.1564     -3238.9823      33.825859      16174.358      10112.159    
     65500   578.18775     -3206.8449     -3240.2522      33.407274      16240.766      10112.159    
     65600   621.72628     -3205.6539     -3241.5768      35.9229        15165.081      10112.159    
     65700   583.53683     -3204.2662     -3237.9825      33.716341      16217.87       10112.159    
     65800   596.03723     -3203.2978     -3237.7364      34.438605      16719.993      10112.159    
     65900   624.69262     -3203.3167     -3239.411       36.094293      16044.047      10112.159    
     66000   588.68455     -3203.9221     -3237.9359      34.013772      16684.594      10112.159    
     66100   583.81703     -3204.1212     -3237.8537      33.732531      16902.578      10112.159    
     66200   588.69231     -3204.7267     -3238.7409      34.01422       16014.192      10112.159    
     66300   595.7017      -3206.0743     -3240.4935      34.419218      15470.491      10112.159    
     66400   561.59995     -3207.6062     -3240.055       32.448843      15520.062      10112.159    
     66500   586.00621     -3205.8681     -3239.7271      33.85902       16052.9        10112.159    
     66600   590.90537     -3203.0904     -3237.2325      34.14209       16084.819      10112.159    
     66700   661.57282     -3201.5026     -3239.7278      38.225204      16611.198      10112.159    
     66800   593.88181     -3203.46       -3237.774       34.314066      16958.278      10112.159    
     66900   598.46573     -3205.0315     -3239.6104      34.578922      15903.408      10112.159    
     67000   610.02034     -3204.8372     -3240.0838      35.246539      16005.284      10112.159    
     67100   601.68024     -3204.1018     -3238.8665      34.764654      16349.141      10112.159    
     67200   593.07762     -3204.3378     -3238.6054      34.267601      16460.528      10112.159    
     67300   581.60736     -3207.1594     -3240.7642      33.604857      15600.354      10112.159    
     67400   568.94163     -3208.1355     -3241.0086      32.87304       15389.105      10112.159    
     67500   620.48358     -3205.6377     -3241.4888      35.851098      16013.658      10112.159    
     67600   581.71342     -3204.2171     -3237.828       33.610985      16560.242      10112.159    
     67700   626.51436     -3203.0731     -3239.2726      36.199552      16172.494      10112.159    
     67800   625.5762      -3203.65       -3239.7954      36.145345      16697.241      10112.159    
     67900   584.56148     -3205.3201     -3239.0956      33.775544      16305.108      10112.159    
     68000   586.44205     -3205.5428     -3239.427       33.884202      15818.394      10112.159    
     68100   606.92486     -3204.6899     -3239.7576      35.067684      15782.152      10112.159    
     68200   614.34217     -3204.174      -3239.6702      35.496251      16066.27       10112.159    
     68300   581.13499     -3204.9668     -3238.5443      33.577564      16225.211      10112.159    
     68400   603.57007     -3205.8286     -3240.7025      34.873847      16195.259      10112.159    
     68500   533.69926     -3207.7379     -3238.5746      30.836762      15913.328      10112.159    
     68600   611.37755     -3206.0353     -3241.3603      35.324958      15786.452      10112.159    
     68700   607.15908     -3203.4303     -3238.5115      35.081217      16429.161      10112.159    
     68800   621.77455     -3202.1859     -3238.1116      35.925689      16444.659      10112.159    
     68900   572.81315     -3203.0525     -3236.1493      33.096734      17057.31       10112.159    
     69000   616.07202     -3204.4017     -3239.9979      35.596201      16304.63       10112.159    
     69100   619.47865     -3205.3397     -3241.1327      35.793033      15143.312      10112.159    
     69200   602.34952     -3205.11       -3239.9133      34.803324      15863.947      10112.159    
     69300   581.92267     -3204.4244     -3238.0475      33.623076      16723.598      10112.159    
     69400   616.00528     -3202.8415     -3238.4338      35.592344      16484.65       10112.159    
     69500   657.46207     -3201.3976     -3239.3853      37.987688      16343.781      10112.159    
     69600   606.3754      -3202.8415     -3237.8774      35.035937      16909.415      10112.159    
     69700   596.5528      -3204.9071     -3239.3755      34.468394      16367.045      10112.159    
     69800   582.53446     -3206.5993     -3240.2578      33.658425      16118.678      10112.159    
     69900   560.24043     -3206.4352     -3238.8055      32.370291      15911.907      10112.159    
     70000   624.49023     -3203.0813     -3239.1639      36.082599      16175.118      10112.159    
     70100   606.21955     -3203.0633     -3238.0902      35.026932      16836.047      10112.159    
     70200   596.84878     -3204.088      -3238.5735      34.485496      16461.494      10112.159    
     70300   578.41858     -3205.3437     -3238.7644      33.420612      16046.859      10112.159    
     70400   616.441       -3204.7458     -3240.3633      35.61752       16115.248      10112.159    
     70500   605.48212     -3202.6971     -3237.6814      34.984324      17048.814      10112.159    
     70600   612.34814     -3202.0025     -3237.3836      35.381037      16720.395      10112.159    
     70700   638.15467     -3203.1569     -3240.0291      36.87212       16175.775      10112.159    
     70800   562.18328     -3206.6043     -3239.0868      32.482548      16034.472      10112.159    
     70900   564.76494     -3206.3311     -3238.9628      32.631714      16129.376      10112.159    
     71000   621.91584     -3204.7539     -3240.6878      35.933852      16128.497      10112.159    
     71100   589.5791      -3204.2225     -3238.288       34.065459      16713.496      10112.159    
     71200   669.16893     -3200.7961     -3239.4602      38.664102      16924.97       10112.159    
     71300   607.36649     -3201.4776     -3236.5708      35.093201      16701.421      10112.159    
     71400   624.0356      -3202.8473     -3238.9036      36.056331      15829.59       10112.159    
     71500   597.46085     -3204.6695     -3239.1904      34.520861      16538.388      10112.159    
     71600   597.2226      -3205.4355     -3239.9426      34.507095      16499.89       10112.159    
     71700   569.42547     -3205.9312     -3238.8322      32.900996      16806.662      10112.159    
     71800   603.44639     -3204.4429     -3239.3096      34.866701      15836.961      10112.159    
     71900   607.7866      -3202.9873     -3238.1048      35.117475      17059.714      10112.159    
     72000   607.61924     -3202.8714     -3237.9792      35.107805      17141.536      10112.159    
     72100   623.1735      -3203.5934     -3239.5999      36.006519      16296.971      10112.159    
     72200   572.45237     -3206.3082     -3239.3841      33.075888      16743.848      10112.159    
     72300   572.68171     -3207.3416     -3240.4307      33.08914       15928.111      10112.159    
     72400   570.26843     -3206.4649     -3239.4146      32.949702      16397.613      10112.159    
     72500   641.5636      -3202.5311     -3239.6002      37.069086      16219.974      10112.159    
     72600   604.69722     -3201.9313     -3236.8703      34.938973      17032.357      10112.159    
     72700   605.48079     -3202.8776     -3237.8619      34.984247      16821.007      10112.159    
     72800   610.76982     -3204.8593     -3240.1492      35.289844      16013.28       10112.159    
     72900   574.661       -3206.2117     -3239.4152      33.203501      16021.76       10112.159    
     73000   612.19717     -3205.7596     -3241.1319      35.372315      15973.826      10112.159    
     73100   592.86877     -3205.2879     -3239.5435      34.255534      16034.816      10112.159    
     73200   595.38372     -3204.5088     -3238.9096      34.400846      16127.934      10112.159    
     73300   602.65984     -3203.9975     -3238.8187      34.821254      16748.003      10112.159    
     73400   614.69505     -3203.8334     -3239.35        35.51664       17158.195      10112.159    
     73500   564.94122     -3204.8031     -3237.445       32.6419        16145.407      10112.159    
     73600   618.03036     -3204.5766     -3240.2859      35.709352      15912.718      10112.159    
     73700   585.83245     -3204.1427     -3237.9917      33.84898       16366.52       10112.159    
     73800   605.18491     -3203.5039     -3238.4711      34.967151      16459.276      10112.159    
     73900   596.08331     -3204.9826     -3239.4238      34.441267      16298.782      10112.159    
     74000   552.7186      -3207.0716     -3239.0073      31.935685      15797.219      10112.159    
     74100   600.67809     -3207.1878     -3241.8945      34.70675       15475.677      10112.159    
     74200   584.23732     -3204.6638     -3238.4206      33.756814      16736.175      10112.159    
     74300   599.61929     -3202.1141     -3236.7597      34.645574      16715.92       10112.159    
[...]
     81800   637.31001     -3203.2921     -3240.1154      36.823316      15994.845      10112.159    
     81900   589.00423     -3203.4389     -3237.4711      34.032243      16408.291      10112.159    
     82000   605.33134     -3204.04       -3239.0156      34.975612      16702.356      10112.159    
     82100   560.06648     -3205.5278     -3237.8881      32.360241      16156.473      10112.159    
     82200   593.39051     -3206.197      -3240.4827      34.285679      16414.356      10112.159    
     82300   579.88424     -3207.0555     -3240.5608      33.505297      15754.729      10112.159    
     82400   602.17541     -3204.3876     -3239.1808      34.793265      16407.155      10112.159    
     82500   623.82936     -3202.1987     -3238.2431      36.044414      17109.41       10112.159    
     82600   609.12154     -3202.4033     -3237.5979      35.194607      16705.195      10112.159    
     82700   597.3567      -3204.1418     -3238.6567      34.514843      16965.507      10112.159    
     82800   594.92999     -3204.6846     -3239.0592      34.37463       16289.085      10112.159    
     82900   614.62994     -3204.519      -3240.0319      35.512878      15768.812      10112.159    
     83000   621.67536     -3204.984      -3240.9039      35.919958      15408.08       10112.159    
     83100   560.47834     -3206.0156     -3238.3996      32.384037      16208.99       10112.159    
     83200   593.37916     -3204.6196     -3238.9046      34.285024      16587.944      10112.159    
     83300   617.65143     -3202.9577     -3238.6451      35.687458      16462.949      10112.159    
     83400   636.17407     -3201.62       -3238.3776      36.757683      17265.232      10112.159    
     83500   626.89546     -3202.8127     -3239.0343      36.221572      16582.523      10112.159    
     83600   603.36699     -3206.2893     -3241.1514      34.862113      15712.735      10112.159    
     83700   557.28184     -3207.2124     -3239.4117      32.199346      16308.657      10112.159    
     83800   613.89514     -3205.2098     -3240.6802      35.470422      16377.867      10112.159    
     83900   596.72397     -3204.1115     -3238.5898      34.478284      16192.253      10112.159    
     84000   621.29863     -3203.2199     -3239.1181      35.89819       16268.133      10112.159    
     84100   620.14087     -3203.4954     -3239.3267      35.831296      16066.642      10112.159    
     84200   608.07938     -3203.9733     -3239.1077      35.134392      16685.293      10112.159    
     84300   603.3935      -3204.6986     -3239.5622      34.863645      16291.821      10112.159    
     84400   603.83685     -3204.8902     -3239.7794      34.889261      15322.687      10112.159    
     84500   607.7591      -3203.621      -3238.7369      35.115886      16375.813      10112.159    
     84600   652.72185     -3200.4694     -3238.1832      37.713802      16869.731      10112.159    
     84700   624.90181     -3201.0704     -3237.1768      36.10638       16375.899      10112.159    
     84800   575.50379     -3204.5124     -3237.7646      33.252198      16364.405      10112.159    
     84900   586.20459     -3205.6093     -3239.4797      33.870482      15748.479      10112.159    
     85000   598.47784     -3204.5974     -3239.177       34.579622      15901.36       10112.159    
     85100   624.97642     -3203.5217     -3239.6324      36.11069       16582.815      10112.159    
     85200   569.5457      -3205.2735     -3238.1814      32.907943      15777.726      10112.159    
     85300   589.35806     -3206.4357     -3240.4884      34.052687      15370.826      10112.159    
     85400   577.41041     -3206.8759     -3240.2382      33.362361      15657.485      10112.159    
     85500   599.86973     -3205.211      -3239.8711      34.660044      15855.125      10112.159    
     85600   579.92703     -3203.4637     -3236.9715      33.507769      16689.127      10112.159    
     85700   631.42441     -3201.2418     -3237.725       36.483251      16802.965      10112.159    
     85800   627.37291     -3202.3252     -3238.5743      36.249158      16520.588      10112.159    
     85900   589.82794     -3204.1887     -3238.2686      34.079836      16985.712      10112.159    
     86000   574.69987     -3205.076      -3238.2817      33.205748      16300.659      10112.159    
     86100   626.96151     -3204.7859     -3241.0113      36.225387      15178.172      10112.159    
     86200   612.61143     -3204.3721     -3239.7684      35.396251      16294.349      10112.159    
     86300   622.41955     -3202.5164     -3238.4794      35.962957      17111.139      10112.159    
     86400   584.80124     -3201.299      -3235.0884      33.789397      17742.596      10112.159    
     86500   653.24355     -3199.7679     -3237.5119      37.743945      17047.911      10112.159    
     86600   623.33003     -3203.0771     -3239.0927      36.015563      16715.717      10112.159    
     86700   599.77973     -3204.7155     -3239.3704      34.654844      16175.044      10112.159    
     86800   586.17296     -3205.3333     -3239.2019      33.868654      16001.065      10112.159    
     86900   605.64046     -3205.2701     -3240.2635      34.993473      15971.528      10112.159    
     87000   627.45512     -3204.036      -3240.2899      36.253908      16000.394      10112.159    
     87100   608.39612     -3202.0469     -3237.1996      35.152693      16252.709      10112.159    
     87200   607.59556     -3201.3181     -3236.4245      35.106437      17238.359      10112.159    
     87300   582.1521      -3203.9133     -3237.5497      33.636332      16854.902      10112.159    
     87400   617.06927     -3206.3179     -3241.9717      35.653821      15790.103      10112.159    
     87500   572.51026     -3207.0569     -3240.1362      33.079233      15353.156      10112.159    
     87600   584.65262     -3205.4656     -3239.2464      33.78081       16358.704      10112.159    
     87700   614.66091     -3203.9449     -3239.4596      35.514668      16491.428      10112.159    
     87800   575.46722     -3204.0471     -3237.2971      33.250084      16265.91       10112.159    
     87900   607.81956     -3203.9447     -3239.0641      35.11938       16402.754      10112.159    
     88000   621.56274     -3204.4328     -3240.3462      35.913451      16070.273      10112.159    
     88100   570.76771     -3206.88       -3239.8586      32.97855       15599.41       10112.159    
     88200   570.94208     -3208.9686     -3241.9572      32.988625      15238.381      10112.159    
     88300   555.65158     -3207.5349     -3239.64        32.105151      15858.974      10112.159    
     88400   613.47471     -3204.4537     -3239.8998      35.44613       15840.211      10112.159    
     88500   611.76297     -3204.42       -3239.7672      35.347227      16345.653      10112.159    
     88600   574.68154     -3204.8925     -3238.0972      33.204688      16154.052      10112.159    
     88700   594.49297     -3203.2425     -3237.5919      34.349379      16298.138      10112.159    
     88800   651.78012     -3201.4694     -3239.1288      37.659389      16775.628      10112.159    
     88900   572.237       -3203.8772     -3236.9407      33.063444      16857.82       10112.159    
     89000   558.46804     -3207.2162     -3239.4841      32.267884      15998.122      10112.159    
     89100   588.36749     -3206.9342     -3240.9296      33.995453      15666.836      10112.159    
     89200   591.45861     -3205.4767     -3239.6507      34.174055      16328.445      10112.159    
     89300   587.69529     -3203.9343     -3237.8909      33.956614      16477.75       10112.159    
     89400   641.80542     -3201.9383     -3239.0213      37.083058      16697.803      10112.159    
     89500   608.34861     -3202.9751     -3238.125       35.149948      16679.943      10112.159    
     89600   593.47179     -3206.2425     -3240.5329      34.290375      15928.614      10112.159    
     89700   560.25395     -3207.2147     -3239.5858      32.371073      15389.016      10112.159    
     89800   599.1717      -3205.5119     -3240.1317      34.619712      15774.864      10112.159    
     89900   625.52959     -3203.58       -3239.7226      36.142652      15519.585      10112.159    
     90000   578.48492     -3203.7642     -3237.1886      33.424445      16504.001      10112.159    
     90100   567.92023     -3204.3514     -3237.1655      32.814025      17177.653      10112.159    
     90200   596.51316     -3204.7627     -3239.2288      34.466104      16183.522      10112.159    
     90300   617.12197     -3204.7098     -3240.3666      35.656866      16291.815      10112.159    
     90400   595.64156     -3204.4662     -3238.882       34.415743      16270.983      10112.159    
     90500   590.63341     -3204.3215     -3238.4479      34.126376      16728.669      10112.159    
     90600   600.16711     -3203.825      -3238.5022      34.677226      16858.972      10112.159    
     90700   621.78942     -3202.3655     -3238.292       35.926548      16413.055      10112.159    
     90800   601.8808      -3202.2767     -3237.053       34.776242      16784.553      10112.159    
     90900   604.77831     -3204.9349     -3239.8786      34.943658      16047.047      10112.159    
     91000   575.28158     -3206.9889     -3240.2283      33.239358      15492.239      10112.159    
     91100   598.4295      -3205.933      -3240.5099      34.576828      16005.061      10112.159    
     91200   590.73215     -3204.9412     -3239.0733      34.132081      16520.802      10112.159    
     91300   590.34039     -3204.3512     -3238.4606      34.109446      16052.863      10112.159    
     91400   584.15021     -3204.1181     -3237.8699      33.751781      16546.45       10112.159    
     91500   633.83014     -3203.0974     -3239.7197      36.622252      16681.591      10112.159    
     91600   639.32626     -3201.2293     -3238.1691      36.939814      16208.945      10112.159    
     91700   614.16441     -3200.4203     -3235.9063      35.485981      16437.036      10112.159    
     91800   593.09654     -3202.296      -3236.5646      34.268694      16707.83       10112.159    
     91900   644.07697     -3204.648      -3241.8623      37.214307      15996.552      10112.159    
     92000   575.21004     -3206.1263     -3239.3615      33.235225      15751.64       10112.159    
     92100   624.32378     -3204.3657     -3240.4387      36.072982      16330.251      10112.159    
     92200   555.54963     -3204.7438     -3236.8431      32.099261      16538.913      10112.159    
     92300   569.79505     -3204.2702     -3237.1926      32.92235       15841.665      10112.159    
     92400   630.20945     -3203.7107     -3240.1238      36.413051      16524.148      10112.159    
     92500   573.48544     -3204.1429     -3237.2784      33.135578      16535.499      10112.159    
     92600   644.45148     -3202.7949     -3240.0308      37.235945      15975.886      10112.159    
     92700   608.26838     -3204.5294     -3239.6747      35.145312      16521.831      10112.159    
     92800   589.62818     -3205.7721     -3239.8404      34.068294      16295.151      10112.159    
     92900   618.36875     -3205.3215     -3241.0504      35.728904      15900.416      10112.159    
     93000   592.4259      -3205.4356     -3239.6655      34.229945      16237.294      10112.159    
     93100   604.39854     -3204.3687     -3239.2904      34.921716      16207.73       10112.159    
     93200   602.86393     -3203.0538     -3237.8868      34.833047      15850.517      10112.159    
     93300   606.60039     -3201.2404     -3236.2893      35.048936      17390.87       10112.159    
     93400   648.62893     -3199.5687     -3237.046       37.477316      17902.139      10112.159    
     93500   639.67736     -3201.5847     -3238.5448      36.960101      16420.575      10112.159    
     93600   601.42308     -3204.934      -3239.6838      34.749795      15695.791      10112.159    
     93700   589.64082     -3205.6203     -3239.6893      34.069025      15762.072      10112.159    
     93800   600.6595      -3205.0356     -3239.7412      34.705676      16269.98       10112.159    
     93900   587.15352     -3204.1064     -3238.0318      33.925311      16122.895      10112.159    
     94000   649.65768     -3201.19       -3238.7268      37.536756      16198.717      10112.159    
     94100   604.06239     -3201.4747     -3236.377       34.902293      17617.162      10112.159    
     94200   605.66604     -3204.0749     -3239.0698      34.994951      16451.757      10112.159    
     94300   591.94559     -3205.8005     -3240.0027      34.202193      15467.637      10112.159    
     94400   568.84008     -3206.1032     -3238.9704      32.867173      16300.453      10112.159    
     94500   595.88523     -3204.3522     -3238.782       34.429823      16233.043      10112.159    
     94600   616.703       -3202.9905     -3238.6232      35.632659      16638.848      10112.159    
     94700   617.72756     -3203.3979     -3239.0898      35.691857      16717.797      10112.159    
     94800   592.48806     -3204.8603     -3239.0938      34.233536      16040.592      10112.159    
     94900   564.37724     -3208.8126     -3241.4219      32.609313      15183.937      10112.159    
     95000   568.53907     -3209.5732     -3242.423       32.849781      15804.483      10112.159    
     95100   573.71866     -3207.403      -3240.5521      33.149054      15352.446      10112.159    
     95200   605.22562     -3205.1636     -3240.1331      34.969504      16128.412      10112.159    
     95300   600.38255     -3203.9842     -3238.6738      34.689674      16683.931      10112.159    
     95400   632.82959     -3202.7049     -3239.2694      36.564441      16681.274      10112.159    
     95500   636.20307     -3203.2342     -3239.9936      36.759359      16046.459      10112.159    
     95600   582.78001     -3206.7292     -3240.4018      33.672612      15577.044      10112.159    
     95700   584.29208     -3206.6423     -3240.4023      33.759979      16216.957      10112.159    
     95800   598.16225     -3204.9579     -3239.5193      34.561387      16456.419      10112.159    
     95900   607.31319     -3203.2821     -3238.3723      35.090122      16549.931      10112.159    
     96000   647.10931     -3199.944      -3237.3335      37.389513      17397.495      10112.159    
     96100   621.11438     -3199.3459     -3235.2335      35.887545      17946.212      10112.159    
     96200   605.41594     -3204.1225     -3239.103       34.9805        16192.741      10112.159    
     96300   620.85424     -3205.3324     -3241.2049      35.872514      16018.983      10112.159    
     96400   564.66783     -3206.5679     -3239.194       32.626103      16284.04       10112.159    
     96500   613.78778     -3205.128      -3240.5922      35.464219      16566.306      10112.159    
     96600   625.03084     -3203.4553     -3239.5691      36.113835      16774.321      10112.159    
     96700   600.01474     -3203.1814     -3237.8498      34.668422      17374.94       10112.159    
     96800   619.98291     -3203.3624     -3239.1846      35.822169      16366.451      10112.159    
     96900   561.94391     -3205.8716     -3238.3403      32.468717      16588.66       10112.159    
     97000   608.27208     -3205.9511     -3241.0966      35.145526      16247.997      10112.159    
     97100   596.25824     -3204.8967     -3239.3481      34.451375      15695.149      10112.159    
     97200   614.8268      -3201.8643     -3237.3885      35.524253      17065.648      10112.159    
     97300   603.54378     -3200.9729     -3235.8453      34.872328      17718.921      10112.159    
     97400   638.07745     -3202.6825     -3239.5501      36.867659      16622.49       10112.159    
     97500   598.35786     -3203.9885     -3238.5612      34.572689      16485.575      10112.159    
     97600   607.30131     -3204.5361     -3239.6256      35.089435      16038.78       10112.159    
     97700   566.38632     -3205.5034     -3238.2288      32.725396      16705.547      10112.159    
     97800   607.97779     -3204.0428     -3239.1713      35.128522      17092.261      10112.159    
     97900   629.95844     -3201.8944     -3238.293       36.398548      16916.592      10112.159    
     98000   632.50564     -3201.0408     -3237.5865      36.545724      16969.641      10112.159    
     98100   590.39528     -3203.1307     -3237.2434      34.112617      16785.847      10112.159    
     98200   575.31574     -3205.8954     -3239.1367      33.241332      16888.982      10112.159    
     98300   596.79278     -3206.3329     -3240.8151      34.48226       15660.627      10112.159    
     98400   606.34426     -3205.3535     -3240.3876      35.034138      16162.777      10112.159    
     98500   600.70557     -3202.2114     -3236.9197      34.708338      17794.724      10112.159    
     98600   621.23162     -3201.1235     -3237.0178      35.894319      16610.844      10112.159    
     98700   634.20885     -3202.4015     -3239.0457      36.644134      16453.204      10112.159    
     98800   615.98292     -3203.9132     -3239.5042      35.591053      16534.612      10112.159    
     98900   570.99979     -3205.5616     -3238.5536      32.99196       16342.358      10112.159    
     99000   592.31002     -3205.2001     -3239.4233      34.223249      16574.427      10112.159    
     99100   616.13425     -3202.2336     -3237.8334      35.599796      17776.375      10112.159    
     99200   633.73997     -3199.7356     -3236.3526      36.617042      17384.426      10112.159    
     99300   627.72582     -3201.3173     -3237.5869      36.269549      16678.895      10112.159    
     99400   594.98873     -3203.9372     -3238.3152      34.378023      17076.027      10112.159    
     99500   581.43477     -3204.3638     -3237.9586      33.594885      16362.338      10112.159    
     99600   602.88811     -3203.9218     -3238.7563      34.834444      17070.494      10112.159    
     99700   617.06273     -3204.1923     -3239.8458      35.653443      16283.979      10112.159    
     99800   625.24138     -3205.2179     -3241.3439      36.126         15263.635      10112.159    
     99900   574.67425     -3207.1328     -3240.337       33.204267      16163.682      10112.159    
    100000   573.10398     -3208.1347     -3241.2483      33.113538      15815.797      10112.159    
Loop time of 776.155 on 20 procs for 100000 steps with 448 atoms

Performance: 11.132 ns/day, 2.156 hours/ns, 128.840 timesteps/s, 57.720 katom-step/s
99.9% CPU use with 20 MPI tasks x 1 OpenMP threads

MPI task timing breakdown:
Section |  min time  |  avg time  |  max time  |%varavg| %total
---------------------------------------------------------------
Pair    | 578.44     | 666.25     | 730.54     | 230.5 | 85.84
Neigh   | 6.8545     | 8.4451     | 10.621     |  41.3 |  1.09
Comm    | 33.864     | 100.22     | 189.69     | 606.0 | 12.91
Output  | 0.20511    | 0.33125    | 0.39184    |  12.4 |  0.04
Modify  | 0.70954    | 0.82052    | 0.91688    |   6.2 |  0.11
Other   |            | 0.08651    |            |       |  0.01

Nlocal:           22.4 ave          25 max          18 min
Histogram: 1 0 6 0 0 1 0 1 10 1
Nghost:          496.5 ave         521 max         465 min
Histogram: 4 0 0 1 6 1 0 0 0 8
Neighs:              0 ave           0 max           0 min
Histogram: 20 0 0 0 0 0 0 0 0 0
FullNghs:       1304.5 ave        1463 max        1057 min
Histogram: 1 0 6 0 0 1 1 0 10 1

Total # of neighbors = 26090
Ave neighs/atom = 58.236607
Neighbor list builds = 100000
Dangerous builds not checked
Total wall time: 0:12:56
