ITEM: TIMESTEP
15
ITEM: NUMBER OF ATOMS
4
ITEM: BOX BOUNDS pp pp pp
1.2989588508953705e-02 3.1793950414910466e+00
2.2498627019287953e-02 5.5068737494426827e+00
-5.0947399691285061e-02 5.0959890396912835e+00
ITEM: ATOMS id type q x y z
1 1                    0     3.17939504122906     1.85062366828179     1.23578671015436
2 1                    0     1.59619231526199    0.936561146968477     3.80925492984564
3 1                    0   0.0129895887709384     3.67874870818018     3.80925492984564
4 1                    0     1.59619231473801     4.59281122949349     1.23578671015436
